                         Program Version 4.0.0 -  RELEASE  -
|  1> ! rks pbe def2-svp
|  2>
|  3> %tddft
|  4>  nroots 24
|  5>  tda false
|  6>  end
|  7>
|  8> * xyzfile 0 1 1-ttt_opt.xyz *
|  9>
| 10>                          ****END OF INPUT****

CARTESIAN COORDINATES (ANGSTROEM)
---------------------------------
  N     -0.084176   -1.978349    0.000003
  C     -0.775853   -0.707890   -0.000004
  H      0.546057   -2.016767    0.812193
  H      0.546053   -2.016778   -0.812189
  C      0.119518    0.530140   -0.000016
  H     -1.452845   -0.629764   -0.880072
  H     -1.452840   -0.629751    0.880067
  O      1.335834    0.510109   -0.000000
  O     -0.604241    1.677930    0.000004
  H      0.052754    2.408039    0.000013

 Total Charge           Charge          ....    0
 Multiplicity           Mult            ....    1
 Number of Electrons    NEL             ....   40
 Basis Dimension        Dim             ....   95

ORBITAL ENERGIES
----------------

  NO   OCC          E(Eh)            E(eV)
   0   2.0000     -18.808279      -511.7993
   1   2.0000     -18.749779      -510.2074
   2   2.0000     -13.981703      -380.4615
   3   2.0000     -10.014047      -272.4961
   4   2.0000      -9.936000      -270.3723
   5   2.0000      -1.003500       -27.3066
   6   2.0000      -0.916110       -24.9286
   7   2.0000      -0.801546       -21.8112
   8   2.0000      -0.643270       -17.5043
   9   2.0000      -0.539774       -14.6880
  10   2.0000      -0.453637       -12.3441
  11   2.0000      -0.443440       -12.0666
  12   2.0000      -0.422559       -11.4984
  13   2.0000      -0.393232       -10.7004
  14   2.0000      -0.382639       -10.4121
  15   2.0000      -0.345622        -9.4049
  16   2.0000      -0.322900        -8.7866
  17   2.0000      -0.280143        -7.6231
  18   2.0000      -0.235237        -6.4011
  19   2.0000      -0.202119        -5.4999
  20   0.0000      -0.030946        -0.8421
  21   0.0000       0.026419         0.7189
  22   0.0000       0.038825         1.0565
  23   0.0000       0.077574         2.1109
  24   0.0000       0.082269         2.2387

MULLIKEN ATOMIC CHARGES
-----------------------
   0 N :   -0.191942
   1 C :    0.029079
   2 H :    0.099307
   3 H :    0.099307
   4 C :    0.031452
   5 H :    0.055706
   6 H :    0.055708
   7 O :   -0.197632
   8 O :   -0.154417
   9 H :    0.173432
Sum of atomic charges:   -0.0000000

LOEWDIN ATOMIC CHARGES
----------------------
   0 N :   -0.098209
   1 C :   -0.037887
   2 H :    0.060918
   3 H :    0.060919
   4 C :    0.028914
   5 H :    0.046667
   6 H :    0.046668
   7 O :   -0.169347
   8 O :   -0.032205
   9 H :    0.093563

  Mayer bond orders larger than 0.1
B(  0-N ,  1-C ) :   1.1582 B(  0-N ,  2-H ) :   0.9712 B(  0-N ,  3-H ) :   0.9712
B(  1-C ,  4-C ) :   0.9167 B(  1-C ,  5-H ) :   0.9262 B(  1-C ,  6-H ) :   0.9262
B(  4-C ,  7-O ) :   2.1125 B(  4-C ,  8-O ) :   1.2157 B(  8-O ,  9-H ) :   0.9423

-----------------------------------------------------------------------------
         ABSORPTION SPECTRUM VIA TRANSITION ELECTRIC DIPOLE MOMENTS
-----------------------------------------------------------------------------
State   Energy  Wavelength   fosc         T2         TX        TY        TZ
        (cm-1)    (nm)                  (au**2)     (au)      (au)      (au)
-----------------------------------------------------------------------------
   1   38297.6    261.1   0.000783033   0.00673  -0.00000  -0.00003   0.08204
   2   46500.0    215.1   0.000531797   0.00377  -0.00001  -0.00002   0.06136
   3   50604.2    197.6   0.029881934   0.19440  -0.05035  -0.43802  -0.00001
   4   53952.8    185.3   0.007766484   0.04739   0.11020   0.18774  -0.00000
   5   58036.0    172.3   0.041458853   0.23518   0.16469   0.45613   0.00000
   6   60846.3    164.3   0.025926713   0.14028   0.10402  -0.35980   0.00000
   7   62341.7    160.4   0.021494177   0.11351  -0.30019   0.15294  -0.00001
   8   63064.5    158.6   0.013952242   0.07283   0.00001  -0.00002  -0.26988
   9   66583.3    150.2   0.075669451   0.37414   0.04641   0.60990   0.00001
  10   68125.5    146.8   0.001313885   0.00635  -0.00008  -0.00004   0.07968
  11   68985.1    145.0   0.023005608   0.10979   0.14829  -0.29631   0.00001
  12   69781.7    143.3   0.002493941   0.01177   0.00009  -0.00001  -0.10847
  13   70120.7    142.6   0.128442213   0.60303   0.77603  -0.02850   0.00015
  14   70226.5    142.4   0.001337284   0.00627   0.00120  -0.00006  -0.07917
  15   71463.6    139.9   0.001325181   0.00610   0.00015  -0.00001  -0.07813
  16   75401.8    132.6   0.004474588   0.01954   0.00001  -0.00002   0.13977
  17   77021.1    129.8   0.000004295   0.00002  -0.00003  -0.00002   0.00428
  18   77820.4    128.5   0.000659022   0.00279   0.00000  -0.00001  -0.05280
  19   78538.6    127.3   0.002483439   0.01041   0.00001  -0.00000   0.10203
  20   80183.2    124.7   0.000421869   0.00173   0.00002   0.00001   0.04162
  21   80342.4    124.5   0.003977563   0.01630   0.02480  -0.12523   0.00000
  22   81420.3    122.8   0.000154279   0.00062  -0.00001   0.00001   0.02498
  23   82946.6    120.6   0.057958791   0.23004  -0.32955  -0.34847  -0.00001
  24   84921.4    117.8   0.009942099   0.03854   0.04836  -0.19027  -0.00000

FINAL SINGLE POINT ENERGY      -283.729749956998

DIPOLE MOMENT
-------------
                                X             Y             Z
Electronic contribution:      1.53912       3.27534      -0.00002
Nuclear contribution   :     -1.69622      -2.82701       0.00002
                        -----------------------------------------
Total Dipole Moment    :     -0.15711       0.44833      -0.00000
                        -----------------------------------------
Magnitude (a.u.)       :      0.47506
Magnitude (Debye)      :      1.20751

                             ****ORCA TERMINATED NORMALLY****
TOTAL RUN TIME: 0 days 0 hours 0 minutes 28 seconds 6 msec
