                         Program Version 4.0.0 -  RELEASE  -
|  1> ! rks pbe def2-svp opt anfreq
|  2>
|  3> * xyz 0 1
|  4> N                     0.0438   -1.92595   0.
|  5> C                    -0.79717  -0.74596   0.
|  6> H                     0.46104  -1.95739   0.90907
|  7> H                     0.46104  -1.95739  -0.90907
|  8> C                     0.05661   0.51399   0.
|  9> H                    -1.42307  -0.74417  -0.90115
| 10> H                    -1.42307  -0.74417   0.90115
| 11> O                     1.31175   0.4235    0.
| 12> O                    -0.5675    1.8006    0.
| 13> H                     0.10683   2.48386   0.
| 14> *
| 15>
| 16>                          ****END OF INPUT****
 Total Charge           Charge          ....    0
 Multiplicity           Mult            ....    1
 Number of Electrons    NEL             ....   40
FINAL SINGLE POINT ENERGY      -283.878188868419
FINAL SINGLE POINT ENERGY      -283.895369064680
FINAL SINGLE POINT ENERGY      -283.901808891334
FINAL SINGLE POINT ENERGY      -283.903446234607
FINAL SINGLE POINT ENERGY      -283.904043846319
FINAL SINGLE POINT ENERGY      -283.904180970103
FINAL SINGLE POINT ENERGY      -283.904243229894
FINAL SINGLE POINT ENERGY      -283.904248070319
                    ***********************HURRAY********************

CARTESIAN COORDINATES (ANGSTROEM)
---------------------------------
  N     -0.084176   -1.978349    0.000003
  C     -0.775853   -0.707890   -0.000004
  H      0.546057   -2.016767    0.812193
  H      0.546053   -2.016778   -0.812189
  C      0.119518    0.530140   -0.000016
  H     -1.452845   -0.629764   -0.880072
  H     -1.452840   -0.629751    0.880067
  O      1.335834    0.510109   -0.000000
  O     -0.604241    1.677930    0.000004
  H      0.052754    2.408039    0.000013

 Multiplicity           Mult            ....    1
 Number of Electrons    NEL             ....   40
 Basis Dimension        Dim             ....   95

ORBITAL ENERGIES
----------------

  NO   OCC          E(Eh)            E(eV)
   0   2.0000     -18.806948      -511.7631
   1   2.0000     -18.749788      -510.2077
   2   2.0000     -13.981463      -380.4550
   3   2.0000     -10.014842      -272.5177
   4   2.0000      -9.937010      -270.3998
   5   2.0000      -1.003345       -27.3024
   6   2.0000      -0.916104       -24.9284
   7   2.0000      -0.801712       -21.8157
   8   2.0000      -0.643475       -17.5098
   9   2.0000      -0.539680       -14.6854
  10   2.0000      -0.453804       -12.3486
  11   2.0000      -0.443678       -12.0731
  12   2.0000      -0.422460       -11.4957
  13   2.0000      -0.393222       -10.7001
  14   2.0000      -0.382757       -10.4154
  15   2.0000      -0.345539        -9.4026
  16   2.0000      -0.323068        -8.7911
  17   2.0000      -0.279913        -7.6168
  18   2.0000      -0.235279        -6.4023
  19   2.0000      -0.202147        -5.5007
  20   0.0000      -0.031129        -0.8471
  21   0.0000       0.026530         0.7219
  22   0.0000       0.038755         1.0546
  23   0.0000       0.077486         2.1085
  24   0.0000       0.082163         2.2358

MULLIKEN ATOMIC CHARGES
-----------------------
   0 N :   -0.192518
   1 C :    0.030546
   2 H :    0.099355
   3 H :    0.099355
   4 C :    0.032835
   5 H :    0.055292
   6 H :    0.055293
   7 O :   -0.198094
   8 O :   -0.155661
   9 H :    0.173598
Sum of atomic charges:   -0.0000000

LOEWDIN ATOMIC CHARGES
----------------------
   0 N :   -0.098638
   1 C :   -0.036933
   2 H :    0.060943
   3 H :    0.060944
   4 C :    0.030009
   5 H :    0.046452
   6 H :    0.046453
   7 O :   -0.169641
   8 O :   -0.033247
   9 H :    0.093658

  Mayer bond orders larger than 0.1
B(  0-N ,  1-C ) :   1.1581 B(  0-N ,  2-H ) :   0.9712 B(  0-N ,  3-H ) :   0.9712
B(  1-C ,  4-C ) :   0.9169 B(  1-C ,  5-H ) :   0.9262 B(  1-C ,  6-H ) :   0.9262
B(  4-C ,  7-O ) :   2.1125 B(  4-C ,  8-O ) :   1.2149 B(  8-O ,  9-H ) :   0.9422

FINAL SINGLE POINT ENERGY      -283.904248417662

DIPOLE MOMENT
-------------
                                X             Y             Z
Electronic contribution:      1.54008       3.27408      -0.00002
Nuclear contribution   :     -1.69622      -2.82701       0.00002
                        -----------------------------------------
Total Dipole Moment    :     -0.15615       0.44707      -0.00000
                        -----------------------------------------
Magnitude (a.u.)       :      0.47355
Magnitude (Debye)      :      1.20367

VIBRATIONAL FREQUENCIES
-----------------------

   0:         0.00 cm**-1
   1:         0.00 cm**-1
   2:         0.00 cm**-1
   3:         0.00 cm**-1
   4:         0.00 cm**-1
   5:         0.00 cm**-1
   6:        66.82 cm**-1
   7:       235.01 cm**-1
   8:       252.49 cm**-1
   9:       457.74 cm**-1
  10:       493.95 cm**-1
  11:       625.14 cm**-1
  12:       662.91 cm**-1
  13:       808.82 cm**-1
  14:       896.73 cm**-1
  15:       898.64 cm**-1
  16:      1118.30 cm**-1
  17:      1130.32 cm**-1
  18:      1150.61 cm**-1
  19:      1258.39 cm**-1
  20:      1332.71 cm**-1
  21:      1353.54 cm**-1
  22:      1378.87 cm**-1
  23:      1603.16 cm**-1
  24:      1804.70 cm**-1
  25:      2965.15 cm**-1
  26:      3009.65 cm**-1
  27:      3409.64 cm**-1
  28:      3479.59 cm**-1
  29:      3615.83 cm**-1

IR SPECTRUM
-----------

 Mode    freq (cm**-1)   T**2         TX         TY         TZ
-------------------------------------------------------------------
   6:        66.82    5.267714  (  0.000044  -0.000011   2.295150)
   7:       235.01   42.612053  ( -0.000084   0.000126   6.527791)
   8:       252.49    9.939308  (  0.105314  -3.150907  -0.000119)
   9:       457.74   32.134994  (  1.361842  -5.502761   0.000172)
  10:       493.95   33.348177  (  0.000569  -0.000243   5.774788)
  11:       625.14    5.890695  (  1.900814   1.509172  -0.000155)
  12:       662.91   84.063382  (  0.000382  -0.000184   9.168609)
  13:       808.82  102.872622  ( -0.041523  10.142529   0.000059)
  14:       896.73    3.611285  (  0.000671   0.004474   1.900333)
  15:       898.64  114.177620  ( -2.017012 -10.493297   0.000941)
  16:      1118.30  222.047546  ( -5.681500  13.775635   0.000049)
  17:      1130.32    0.804072  (  0.000640  -0.000886  -0.896700)
  18:      1150.61   30.640033  ( -0.411458   5.520030   0.000102)
  19:      1258.39   12.391562  (  1.154693  -3.325394   0.000074)
  20:      1332.71    1.084326  ( -0.000141  -0.000031  -1.041310)
  21:      1353.54   32.944275  ( -2.524921  -5.154517   0.000046)
  22:      1378.87   11.445530  (  2.645678  -2.108535  -0.000009)
  23:      1603.16   16.146347  ( -4.017091  -0.096593   0.000007)
  24:      1804.70  247.934604  ( 15.294655  -3.742742  -0.000065)
  25:      2965.15   17.165978  ( -3.300150   2.504992  -0.000090)
  26:      3009.65    6.077168  (  0.000076   0.000069   2.465191)
  27:      3409.64    1.115653  (  0.950603   0.460441  -0.000006)
  28:      3479.59    2.295630  ( -0.000016   0.000011   1.515134)
  29:      3615.83   36.660441  ( -3.172939  -5.156830  -0.000093)

--------------------------
THERMOCHEMISTRY AT 298.15K
--------------------------

Temperature         ... 298.15 K
Pressure            ... 1.00 atm
Total Mass          ... 75.07 AMU

Throughout the following assumptions are being made:
  (1) The electronic state is orbitally nondegenerate
  (2) There are no thermally accessible electronically excited states
  (3) Hindered rotations indicated by low frequency modes are not
      treated as such but are treated as vibrations and this may
      cause some error
  (4) All equations used are the standard statistical mechanics
      equations for an ideal gas
  (5) All vibrations are strictly harmonic

freq.      66.82  E(vib)   ...       0.50
freq.     235.01  E(vib)   ...       0.32
freq.     252.49  E(vib)   ...       0.30
freq.     457.74  E(vib)   ...       0.16
freq.     493.95  E(vib)   ...       0.14
freq.     625.14  E(vib)   ...       0.09
freq.     662.91  E(vib)   ...       0.08
freq.     808.82  E(vib)   ...       0.05
freq.     896.73  E(vib)   ...       0.03
freq.     898.64  E(vib)   ...       0.03
freq.    1118.30  E(vib)   ...       0.01
freq.    1130.32  E(vib)   ...       0.01
freq.    1150.61  E(vib)   ...       0.01
freq.    1258.39  E(vib)   ...       0.01
freq.    1332.71  E(vib)   ...       0.01
freq.    1353.54  E(vib)   ...       0.01
freq.    1378.87  E(vib)   ...       0.01
freq.    1603.16  E(vib)   ...       0.00
freq.    1804.70  E(vib)   ...       0.00
freq.    2965.15  E(vib)   ...       0.00
freq.    3009.65  E(vib)   ...       0.00
freq.    3409.64  E(vib)   ...       0.00
freq.    3479.59  E(vib)   ...       0.00
freq.    3615.83  E(vib)   ...       0.00

------------
INNER ENERGY
------------

The inner energy is: U= E(el) + E(ZPE) + E(vib) + E(rot) + E(trans)
    E(el)   - is the total energy from the electronic structure calculation
              = E(kin-el) + E(nuc-el) + E(el-el) + E(nuc-nuc)
    E(ZPE)  - the the zero temperature vibrational energy from the frequency calculation
    E(vib)  - the the finite temperature correction to E(ZPE) due to population
              of excited vibrational states
    E(rot)  - is the rotational thermal energy
    E(trans)- is the translational thermal energy

Summary of contributions to the inner energy U:
Electronic energy                ...   -283.90424842 Eh
Zero point energy                ...      0.07747754 Eh      48.62 kcal/mol
Thermal vibrational correction   ...      0.00284746 Eh       1.79 kcal/mol
Thermal rotational correction    ...      0.00141627 Eh       0.89 kcal/mol
Thermal translational correction ...      0.00141627 Eh       0.89 kcal/mol
-----------------------------------------------------------------------
Total thermal energy                   -283.82109087 Eh

Summary of corrections to the electronic energy:
(perhaps to be used in another calculation)
Total thermal correction                  0.00568001 Eh       3.56 kcal/mol
Non-thermal (ZPE) correction              0.07747754 Eh      48.62 kcal/mol
-----------------------------------------------------------------------
Total correction                          0.08315755 Eh      52.18 kcal/mol

--------
ENTHALPY
--------

The enthalpy is H = U + kB*T
                kB is Boltzmann's constant
Total free energy                 ...   -283.82109087 Eh
Thermal Enthalpy correction       ...      0.00094421 Eh       0.59 kcal/mol
-----------------------------------------------------------------------
Total Enthalpy                    ...   -283.82014666 Eh

Vibrational entropy computed according to the QRRHO of S. Grimme
Chem.Eur.J. 2012 18 9955

check

-------
ENTROPY
-------

The entropy contributions are T*S = T*(S(el)+S(vib)+S(rot)+S(trans)
     S(el)   - electronic entropy
     S(vib)  - vibrational entropy
     S(rot)  - rotational entropy
     S(trans)- translational entropy
The entropies will be listed as mutliplied by the temperature to get
units of energy

Electronic entropy                ...      0.00000000 Eh      0.00 kcal/mol
Vibrational entropy               ...      0.00472751 Eh      2.97 kcal/mol
Rotational entropy                ...      0.01105491 Eh      6.94 kcal/mol
Translational entropy             ...      0.01846507 Eh     11.59 kcal/mol
-----------------------------------------------------------------------
Final entropy term                ...      0.03424749 Eh     21.49 kcal/mol

CAUTION: The rotational entropy is not quite correctly treated here
         because it includes a symmetry number that is not yet correctly
         implemented in ORCA!
For a nonlinear molecule the correct rotational entropy is:
    S(rot) = R*(ln(qrot/sn)+1.5)
    R    = 8.31441 J/mol/K = 1.987191683e-3 kcal/mol/K
    qrot = 81395.2776956
    sn is the rotational symmetry number. We have assumed 3 here
       if it is different for your molecule then you should correct
       the printed rotational entropy by manually evaluating the equation
       as given above

For convenience we print out the resulting values for sn=1 - 12:
 sn= 1  qrot/sn=   81395.2777 T*S(rot)=     7.59 kcal/mol T*S(tot)=    22.14 kcal/mol
 sn= 2  qrot/sn=   40697.6388 T*S(rot)=     7.18 kcal/mol T*S(tot)=    21.73 kcal/mol
 sn= 3  qrot/sn=   27131.7592 T*S(rot)=     6.94 kcal/mol T*S(tot)=    21.49 kcal/mol
 sn= 4  qrot/sn=   20348.8194 T*S(rot)=     6.77 kcal/mol T*S(tot)=    21.32 kcal/mol
 sn= 5  qrot/sn=   16279.0555 T*S(rot)=     6.63 kcal/mol T*S(tot)=    21.19 kcal/mol
 sn= 6  qrot/sn=   13565.8796 T*S(rot)=     6.53 kcal/mol T*S(tot)=    21.08 kcal/mol
 sn= 7  qrot/sn=   11627.8968 T*S(rot)=     6.44 kcal/mol T*S(tot)=    20.99 kcal/mol
 sn= 8  qrot/sn=   10174.4097 T*S(rot)=     6.36 kcal/mol T*S(tot)=    20.91 kcal/mol
 sn= 9  qrot/sn=    9043.9197 T*S(rot)=     6.29 kcal/mol T*S(tot)=    20.84 kcal/mol
 sn=10  qrot/sn=    8139.5278 T*S(rot)=     6.22 kcal/mol T*S(tot)=    20.78 kcal/mol
 sn=11  qrot/sn=    7399.5707 T*S(rot)=     6.17 kcal/mol T*S(tot)=    20.72 kcal/mol
 sn=12  qrot/sn=    6782.9398 T*S(rot)=     6.12 kcal/mol T*S(tot)=    20.67 kcal/mol

-------------------
GIBBS FREE ENTHALPY
-------------------

The Gibbs free enthalpy is G = H - T*S

Total enthalpy                    ...   -283.82014666 Eh
Total entropy correction          ...     -0.03424749 Eh    -21.49 kcal/mol
-----------------------------------------------------------------------
Final Gibbs free enthalpy         ...   -283.85439415 Eh

For completeness - the Gibbs free enthalpy minus the electronic energy
G-E(el)                           ...      0.04985427 Eh     31.28 kcal/mol

                             ****ORCA TERMINATED NORMALLY****
TOTAL RUN TIME: 0 days 0 hours 2 minutes 25 seconds 941 msec
