                         Program Version 4.0.0 -  RELEASE  -
|  1> ! rks pbe def2-svp opt anfreq
|  2>
|  3> * xyz 0 1
|  4> N                     0.17002  -1.7885    0.
|  5> C                    -0.78851  -0.70186   0.
|  6> H                     0.03504  -2.26046  -0.87538
|  7> H                     0.03504  -2.26046   0.87538
|  8> C                    -0.06969   0.63967   0.
|  9> H                    -1.4156   -0.76439  -0.89627
| 10> H                    -1.4156   -0.76439   0.89627
| 11> O                    -0.73311   1.70897   0.
| 12> O                     1.35957   0.68499   0.
| 13> H                     1.70853  -0.20932   0.
| 14> *
| 15>
| 16>                          ****END OF INPUT****
 Total Charge           Charge          ....    0
 Multiplicity           Mult            ....    1
 Number of Electrons    NEL             ....   40
FINAL SINGLE POINT ENERGY      -283.882082422328
FINAL SINGLE POINT ENERGY      -283.900800893777
FINAL SINGLE POINT ENERGY      -283.904847139684
FINAL SINGLE POINT ENERGY      -283.905688598605
FINAL SINGLE POINT ENERGY      -283.905862951582
FINAL SINGLE POINT ENERGY      -283.905868477492
FINAL SINGLE POINT ENERGY      -283.905870584202
                    ***********************HURRAY********************

CARTESIAN COORDINATES (ANGSTROEM)
---------------------------------
  N      0.240973   -1.735777   -0.000020
  C     -0.758655   -0.658787   -0.000000
  H      0.166631   -2.339306   -0.825702
  H      0.166674   -2.339298    0.825671
  C     -0.066955    0.726998   -0.000015
  H     -1.426552   -0.693336   -0.886005
  H     -1.426519   -0.693333    0.886030
  O     -0.683673    1.771149   -0.000024
  O      1.268350    0.623407   -0.000003
  H      1.405417   -0.377468    0.000068

 Multiplicity           Mult            ....    1
 Number of Electrons    NEL             ....   40
 Basis Dimension        Dim             ....   95

ORBITAL ENERGIES
----------------

  NO   OCC          E(Eh)            E(eV)
   0   2.0000     -18.775440      -510.9057
   1   2.0000     -18.720725      -509.4168
   2   2.0000     -14.028619      -381.7381
   3   2.0000      -9.996622      -272.0219
   4   2.0000      -9.948744      -270.7191
   5   2.0000      -0.976579       -26.5741
   6   2.0000      -0.897512       -24.4226
   7   2.0000      -0.829987       -22.5851
   8   2.0000      -0.640269       -17.4226
   9   2.0000      -0.515195       -14.0192
  10   2.0000      -0.484452       -13.1826
  11   2.0000      -0.461584       -12.5603
  12   2.0000      -0.442285       -12.0352
  13   2.0000      -0.392171       -10.6715
  14   2.0000      -0.360054        -9.7976
  15   2.0000      -0.333351        -9.0709
  16   2.0000      -0.310148        -8.4395
  17   2.0000      -0.262438        -7.1413
  18   2.0000      -0.251744        -6.8503
  19   2.0000      -0.201242        -5.4761
  20   0.0000      -0.012927        -0.3518
  21   0.0000      -0.000536        -0.0146
  22   0.0000       0.049054         1.3348
  23   0.0000       0.067680         1.8417
  24   0.0000       0.100216         2.7270

MULLIKEN ATOMIC CHARGES
-----------------------
   0 N :   -0.245241
   1 C :   -0.023424
   2 H :    0.126039
   3 H :    0.126038
   4 C :    0.078278
   5 H :    0.063980
   6 H :    0.063980
   7 O :   -0.201322
   8 O :   -0.150083
   9 H :    0.161755
Sum of atomic charges:   -0.0000000

LOEWDIN ATOMIC CHARGES
----------------------
   0 N :   -0.075403
   1 C :   -0.038553
   2 H :    0.074089
   3 H :    0.074088
   4 C :    0.020316
   5 H :    0.044947
   6 H :    0.044947
   7 O :   -0.166079
   8 O :   -0.035425
   9 H :    0.057073

  Mayer bond orders larger than 0.1
B(  0-N ,  1-C ) :   1.0467 B(  0-N ,  2-H ) :   0.9622 B(  0-N ,  3-H ) :   0.9622
B(  0-N ,  9-H ) :   0.1914 B(  1-C ,  4-C ) :   0.9134 B(  1-C ,  5-H ) :   0.9387
B(  1-C ,  6-H ) :   0.9387 B(  4-C ,  7-O ) :   2.1094 B(  4-C ,  8-O ) :   1.2805
B(  7-O ,  8-O ) :   0.1164 B(  8-O ,  9-H ) :   0.8663

FINAL SINGLE POINT ENERGY      -283.905870968706

DIPOLE MOMENT
-------------
                                X             Y             Z
Electronic contribution:      0.95848       4.28937      -0.00006
Nuclear contribution   :     -1.14187      -6.54253       0.00011
                        -----------------------------------------
Total Dipole Moment    :     -0.18339      -2.25316       0.00005
                        -----------------------------------------
Magnitude (a.u.)       :      2.26061
Magnitude (Debye)      :      5.74601

VIBRATIONAL FREQUENCIES
-----------------------

   0:         0.00 cm**-1
   1:         0.00 cm**-1
   2:         0.00 cm**-1
   3:         0.00 cm**-1
   4:         0.00 cm**-1
   5:         0.00 cm**-1
   6:       -79.11 cm**-1 ***imaginary mode***
   7:       259.60 cm**-1
   8:       344.51 cm**-1
   9:       497.88 cm**-1
  10:       516.52 cm**-1
  11:       649.11 cm**-1
  12:       789.40 cm**-1
  13:       876.22 cm**-1
  14:       878.28 cm**-1
  15:       951.28 cm**-1
  16:      1059.61 cm**-1
  17:      1102.50 cm**-1
  18:      1201.79 cm**-1
  19:      1269.28 cm**-1
  20:      1280.93 cm**-1
  21:      1381.09 cm**-1
  22:      1440.21 cm**-1
  23:      1572.84 cm**-1
  24:      1845.75 cm**-1
  25:      2991.04 cm**-1
  26:      3046.91 cm**-1
  27:      3124.85 cm**-1
  28:      3447.09 cm**-1
  29:      3528.99 cm**-1

IR SPECTRUM
-----------

 Mode    freq (cm**-1)   T**2         TX         TY         TZ
-------------------------------------------------------------------
   7:       259.60   12.400927  ( -0.000023   0.000756   3.521495)
   8:       344.51   21.050159  ( -0.977648  -4.482674   0.000019)
   9:       497.88    0.322657  ( -0.432985  -0.367669   0.000187)
  10:       516.52    1.125437  ( -0.000143  -0.000226  -1.060866)
  11:       649.11    2.918102  ( -1.309397   1.097079  -0.000290)
  12:       789.40   52.514950  ( -7.244919   0.161568   0.000842)
  13:       876.22   10.757651  ( -0.007025   0.002112   3.279878)
  14:       878.28   70.222561  ( -8.094531   2.168207  -0.002825)
  15:       951.28   60.755480  ( -0.001155  -0.001919  -7.794580)
  16:      1059.61    9.240548  ( -0.284346  -3.026499  -0.000477)
  17:      1102.50    5.310385  ( -0.000136  -0.000754  -2.304427)
  18:      1201.79   31.984404  (  5.480789  -1.394759   0.000918)
  19:      1269.28   14.539609  ( -3.319331   1.876606   0.000132)
  20:      1280.93    0.112594  ( -0.000206  -0.000069  -0.335550)
  21:      1381.09    7.273877  ( -1.455612  -2.270478   0.000057)
  22:      1440.21  355.474157  (-17.918161  -5.866315  -0.000063)
  23:      1572.84   36.175616  ( -2.136330  -5.622429  -0.000001)
  24:      1845.75  321.774896  (  6.740231 -16.623603   0.000289)
  25:      2991.04    8.767282  (  2.941174  -0.341726  -0.000123)
  26:      3046.91    3.648211  (  0.000107  -0.000195  -1.910029)
  27:      3124.85  428.649969  (  1.013734  20.679031  -0.000389)
  28:      3447.09    2.597670  ( -0.736134  -1.433798  -0.000124)
  29:      3528.99   18.273215  (  0.000108   0.000177   4.274718)

--------------------------
THERMOCHEMISTRY AT 298.15K
--------------------------

Temperature         ... 298.15 K
Pressure            ... 1.00 atm
Total Mass          ... 75.07 AMU

Throughout the following assumptions are being made:
  (1) The electronic state is orbitally nondegenerate
  (2) There are no thermally accessible electronically excited states
  (3) Hindered rotations indicated by low frequency modes are not
      treated as such but are treated as vibrations and this may
      cause some error
  (4) All equations used are the standard statistical mechanics
      equations for an ideal gas
  (5) All vibrations are strictly harmonic

freq.     259.60  E(vib)   ...       0.30
freq.     344.51  E(vib)   ...       0.23
freq.     497.88  E(vib)   ...       0.14
freq.     516.52  E(vib)   ...       0.13
freq.     649.11  E(vib)   ...       0.08
freq.     789.40  E(vib)   ...       0.05
freq.     876.22  E(vib)   ...       0.04
freq.     878.28  E(vib)   ...       0.04
freq.     951.28  E(vib)   ...       0.03
freq.    1059.61  E(vib)   ...       0.02
freq.    1102.50  E(vib)   ...       0.02
freq.    1201.79  E(vib)   ...       0.01
freq.    1269.28  E(vib)   ...       0.01
freq.    1280.93  E(vib)   ...       0.01
freq.    1381.09  E(vib)   ...       0.01
freq.    1440.21  E(vib)   ...       0.00
freq.    1572.84  E(vib)   ...       0.00
freq.    1845.75  E(vib)   ...       0.00
freq.    2991.04  E(vib)   ...       0.00
freq.    3046.91  E(vib)   ...       0.00
freq.    3124.85  E(vib)   ...       0.00
freq.    3447.09  E(vib)   ...       0.00
freq.    3528.99  E(vib)   ...       0.00

------------
INNER ENERGY
------------

The inner energy is: U= E(el) + E(ZPE) + E(vib) + E(rot) + E(trans)
    E(el)   - is the total energy from the electronic structure calculation
              = E(kin-el) + E(nuc-el) + E(el-el) + E(nuc-nuc)
    E(ZPE)  - the the zero temperature vibrational energy from the frequency calculation
    E(vib)  - the the finite temperature correction to E(ZPE) due to population
              of excited vibrational states
    E(rot)  - is the rotational thermal energy
    E(trans)- is the translational thermal energy

Summary of contributions to the inner energy U:
Electronic energy                ...   -283.90587097 Eh
Zero point energy                ...      0.07758455 Eh      48.68 kcal/mol
Thermal vibrational correction   ...      0.00177143 Eh       1.11 kcal/mol
Thermal rotational correction    ...      0.00141627 Eh       0.89 kcal/mol
Thermal translational correction ...      0.00141627 Eh       0.89 kcal/mol
-----------------------------------------------------------------------
Total thermal energy                   -283.82368245 Eh

Summary of corrections to the electronic energy:
(perhaps to be used in another calculation)
Total thermal correction                  0.00460397 Eh       2.89 kcal/mol
Non-thermal (ZPE) correction              0.07758455 Eh      48.68 kcal/mol
-----------------------------------------------------------------------
Total correction                          0.08218852 Eh      51.57 kcal/mol

--------
ENTHALPY
--------

The enthalpy is H = U + kB*T
                kB is Boltzmann's constant
Total free energy                 ...   -283.82368245 Eh
Thermal Enthalpy correction       ...      0.00094421 Eh       0.59 kcal/mol
-----------------------------------------------------------------------
Total Enthalpy                    ...   -283.82273824 Eh

Vibrational entropy computed according to the QRRHO of S. Grimme
Chem.Eur.J. 2012 18 9955

check

-------
ENTROPY
-------

The entropy contributions are T*S = T*(S(el)+S(vib)+S(rot)+S(trans)
     S(el)   - electronic entropy
     S(vib)  - vibrational entropy
     S(rot)  - rotational entropy
     S(trans)- translational entropy
The entropies will be listed as mutliplied by the temperature to get
units of energy

Electronic entropy                ...      0.00000000 Eh      0.00 kcal/mol
Vibrational entropy               ...      0.00258437 Eh      1.62 kcal/mol
Rotational entropy                ...      0.01101419 Eh      6.91 kcal/mol
Translational entropy             ...      0.01846507 Eh     11.59 kcal/mol
-----------------------------------------------------------------------
Final entropy term                ...      0.03206363 Eh     20.12 kcal/mol

CAUTION: The rotational entropy is not quite correctly treated here
         because it includes a symmetry number that is not yet correctly
         implemented in ORCA!
For a nonlinear molecule the correct rotational entropy is:
    S(rot) = R*(ln(qrot/sn)+1.5)
    R    = 8.31441 J/mol/K = 1.987191683e-3 kcal/mol/K
    qrot = 77959.5738319
    sn is the rotational symmetry number. We have assumed 3 here
       if it is different for your molecule then you should correct
       the printed rotational entropy by manually evaluating the equation
       as given above

For convenience we print out the resulting values for sn=1 - 12:
 sn= 1  qrot/sn=   77959.5738 T*S(rot)=     7.56 kcal/mol T*S(tot)=    20.77 kcal/mol
 sn= 2  qrot/sn=   38979.7869 T*S(rot)=     7.15 kcal/mol T*S(tot)=    20.36 kcal/mol
 sn= 3  qrot/sn=   25986.5246 T*S(rot)=     6.91 kcal/mol T*S(tot)=    20.12 kcal/mol
 sn= 4  qrot/sn=   19489.8935 T*S(rot)=     6.74 kcal/mol T*S(tot)=    19.95 kcal/mol
 sn= 5  qrot/sn=   15591.9148 T*S(rot)=     6.61 kcal/mol T*S(tot)=    19.82 kcal/mol
 sn= 6  qrot/sn=   12993.2623 T*S(rot)=     6.50 kcal/mol T*S(tot)=    19.71 kcal/mol
 sn= 7  qrot/sn=   11137.0820 T*S(rot)=     6.41 kcal/mol T*S(tot)=    19.62 kcal/mol
 sn= 8  qrot/sn=    9744.9467 T*S(rot)=     6.33 kcal/mol T*S(tot)=    19.54 kcal/mol
 sn= 9  qrot/sn=    8662.1749 T*S(rot)=     6.26 kcal/mol T*S(tot)=    19.47 kcal/mol
 sn=10  qrot/sn=    7795.9574 T*S(rot)=     6.20 kcal/mol T*S(tot)=    19.41 kcal/mol
 sn=11  qrot/sn=    7087.2340 T*S(rot)=     6.14 kcal/mol T*S(tot)=    19.35 kcal/mol
 sn=12  qrot/sn=    6496.6312 T*S(rot)=     6.09 kcal/mol T*S(tot)=    19.30 kcal/mol

-------------------
GIBBS FREE ENTHALPY
-------------------

The Gibbs free enthalpy is G = H - T*S

Total enthalpy                    ...   -283.82273824 Eh
Total entropy correction          ...     -0.03206363 Eh    -20.12 kcal/mol
-----------------------------------------------------------------------
Final Gibbs free enthalpy         ...   -283.85480187 Eh

For completeness - the Gibbs free enthalpy minus the electronic energy
G-E(el)                           ...      0.05106910 Eh     32.05 kcal/mol

                             ****ORCA TERMINATED NORMALLY****
TOTAL RUN TIME: 0 days 0 hours 1 minutes 55 seconds 881 msec
