                         Program Version 4.0.0 -  RELEASE  -
|  1> ! rks pbe def2-svp
|  2>
|  3> %tddft
|  4>  nroots 24
|  5>  tda false
|  6>  end
|  7>
|  8> * xyzfile 0 1 2-ccc_opt.xyz *
|  9>
| 10>                          ****END OF INPUT****

CARTESIAN COORDINATES (ANGSTROEM)
---------------------------------
  N      0.240973   -1.735777   -0.000020
  C     -0.758655   -0.658787   -0.000000
  H      0.166631   -2.339306   -0.825702
  H      0.166674   -2.339298    0.825671
  C     -0.066955    0.726998   -0.000015
  H     -1.426552   -0.693336   -0.886005
  H     -1.426519   -0.693333    0.886030
  O     -0.683673    1.771149   -0.000024
  O      1.268350    0.623407   -0.000003
  H      1.405417   -0.377468    0.000068

 Total Charge           Charge          ....    0
 Multiplicity           Mult            ....    1
 Number of Electrons    NEL             ....   40
 Basis Dimension        Dim             ....   95

ORBITAL ENERGIES
----------------

  NO   OCC          E(Eh)            E(eV)
   0   2.0000     -18.776823      -510.9433
   1   2.0000     -18.720622      -509.4140
   2   2.0000     -14.028878      -381.7452
   3   2.0000      -9.995822      -272.0001
   4   2.0000      -9.947689      -270.6904
   5   2.0000      -0.976738       -26.5784
   6   2.0000      -0.897449       -24.4208
   7   2.0000      -0.829918       -22.5832
   8   2.0000      -0.639945       -17.4138
   9   2.0000      -0.515453       -14.0262
  10   2.0000      -0.484374       -13.1805
  11   2.0000      -0.461393       -12.5551
  12   2.0000      -0.442074       -12.0294
  13   2.0000      -0.392036       -10.6678
  14   2.0000      -0.360019        -9.7966
  15   2.0000      -0.333258        -9.0684
  16   2.0000      -0.310318        -8.4442
  17   2.0000      -0.262474        -7.1423
  18   2.0000      -0.251939        -6.8556
  19   2.0000      -0.201142        -5.4734
  20   0.0000      -0.012765        -0.3474
  21   0.0000      -0.000499        -0.0136
  22   0.0000       0.049138         1.3371
  23   0.0000       0.067816         1.8454
  24   0.0000       0.100118         2.7244

MULLIKEN ATOMIC CHARGES
-----------------------
   0 N :   -0.244707
   1 C :   -0.024849
   2 H :    0.126026
   3 H :    0.126025
   4 C :    0.076887
   5 H :    0.064364
   6 H :    0.064364
   7 O :   -0.200927
   8 O :   -0.148745
   9 H :    0.161561
Sum of atomic charges:   -0.0000000

LOEWDIN ATOMIC CHARGES
----------------------
   0 N :   -0.075002
   1 C :   -0.039520
   2 H :    0.074093
   3 H :    0.074092
   4 C :    0.019242
   5 H :    0.045139
   6 H :    0.045139
   7 O :   -0.165832
   8 O :   -0.034303
   9 H :    0.056953

  Mayer bond orders larger than 0.1
B(  0-N ,  1-C ) :   1.0470 B(  0-N ,  2-H ) :   0.9622 B(  0-N ,  3-H ) :   0.9622
B(  0-N ,  9-H ) :   0.1913 B(  1-C ,  4-C ) :   0.9131 B(  1-C ,  5-H ) :   0.9387
B(  1-C ,  6-H ) :   0.9387 B(  4-C ,  7-O ) :   2.1092 B(  4-C ,  8-O ) :   1.2813
B(  7-O ,  8-O ) :   0.1167 B(  8-O ,  9-H ) :   0.8664

-----------------------------------------------------------------------------
         ABSORPTION SPECTRUM VIA TRANSITION ELECTRIC DIPOLE MOMENTS
-----------------------------------------------------------------------------
State   Energy  Wavelength   fosc         T2         TX        TY        TZ
        (cm-1)    (nm)                  (au**2)     (au)      (au)      (au)
-----------------------------------------------------------------------------
   1   42987.3    232.6   0.001196530   0.00916   0.00001  -0.00003  -0.09573
   2   44498.6    224.7   0.017071615   0.12630   0.13474  -0.32886   0.00001
   3   54997.6    181.8   0.000780407   0.00467   0.00001  -0.00000   0.06835
   4   55244.3    181.0   0.000051781   0.00031   0.00002   0.00001   0.01757
   5   55592.1    179.9   0.000000032   0.00000  -0.00002  -0.00000  -0.00044
   6   58715.9    170.3   0.006349089   0.03560   0.01727  -0.18788   0.00000
   7   59722.7    167.4   0.037543453   0.20695  -0.34554  -0.29589   0.00001
   8   61871.7    161.6   0.027327575   0.14541   0.29446  -0.24228  -0.00000
   9   66677.5    150.0   0.002898012   0.01431   0.09711   0.06985   0.00001
  10   67202.9    148.8   0.000077458   0.00038   0.00004   0.00001  -0.01948
  11   68337.9    146.3   0.012281294   0.05916   0.04680   0.23869  -0.00000
  12   69046.9    144.8   0.000111829   0.00053  -0.00003   0.00002  -0.02309
  13   70237.2    142.4   0.000444156   0.00208   0.00004  -0.00004  -0.04563
  14   70803.4    141.2   0.057482452   0.26727   0.34725  -0.38300   0.00002
  15   73375.7    136.3   0.043726126   0.19618  -0.37429   0.23683   0.00000
  16   73402.2    136.2   0.000000315   0.00000  -0.00004   0.00007   0.00119
  17   74190.6    134.8   0.014220589   0.06310   0.00002   0.00002  -0.25120
  18   75502.5    132.4   0.089222496   0.38903   0.50864   0.36101  -0.00001
  19   77058.0    129.8   0.006843315   0.02924  -0.17097  -0.00256   0.00000
  20   78162.9    127.9   0.000427972   0.00180  -0.00003  -0.00003  -0.04246
  21   78991.0    126.6   0.000227936   0.00095   0.00000   0.00009   0.03082
  22   79192.6    126.3   0.014870533   0.06182   0.09027   0.23167  -0.00006
  23   79713.9    125.4   0.015702806   0.06485  -0.00002  -0.00008  -0.25466
  24   83258.0    120.1   0.145856513   0.57673  -0.72243  -0.23416  -0.00001

FINAL SINGLE POINT ENERGY      -283.710005366918

DIPOLE MOMENT
-------------
                                X             Y             Z
Electronic contribution:      0.96076       4.28952      -0.00006
Nuclear contribution   :     -1.14187      -6.54253       0.00011
                        -----------------------------------------
Total Dipole Moment    :     -0.18111      -2.25301       0.00005
                        -----------------------------------------
Magnitude (a.u.)       :      2.26028
Magnitude (Debye)      :      5.74517

                             ****ORCA TERMINATED NORMALLY****
TOTAL RUN TIME: 0 days 0 hours 0 minutes 27 seconds 552 msec
