                         Program Version 4.0.0 -  RELEASE  -
|  1> ! rks pbe def2-svp opt anfreq
|  2>
|  3> * xyz 0 1
|  4> N                     0.0438   -1.92595   0.
|  5> C                    -0.79717  -0.74596   0.
|  6> H                     0.86105  -1.67231  -0.5189
|  7> H                    -0.58115  -2.70014  -0.10748
|  8> C                     0.05661   0.51399   0.
|  9> H                    -1.42307  -0.74417  -0.90115
| 10> H                    -1.42307  -0.74417   0.90115
| 11> O                     1.31175   0.4235    0.
| 12> O                    -0.5675    1.8006    0.
| 13> H                     0.10683   2.48386   0.
| 14> *
| 15>
| 16>                          ****END OF INPUT****
 Total Charge           Charge          ....    0
 Multiplicity           Mult            ....    1
 Number of Electrons    NEL             ....   40
FINAL SINGLE POINT ENERGY      -283.876282824526
FINAL SINGLE POINT ENERGY      -283.893013753457
FINAL SINGLE POINT ENERGY      -283.898163418396
FINAL SINGLE POINT ENERGY      -283.899333234257
FINAL SINGLE POINT ENERGY      -283.900360769479
FINAL SINGLE POINT ENERGY      -283.900739297003
FINAL SINGLE POINT ENERGY      -283.900975804634
FINAL SINGLE POINT ENERGY      -283.901048335231
FINAL SINGLE POINT ENERGY      -283.901063928833
FINAL SINGLE POINT ENERGY      -283.901065845958
                    ***********************HURRAY********************

CARTESIAN COORDINATES (ANGSTROEM)
---------------------------------
  N      0.010346   -1.906431    0.171417
  C     -0.787554   -0.710088   -0.007504
  H      0.883216   -1.796342   -0.362082
  H     -0.476534   -2.725546   -0.206461
  C      0.104659    0.516273   -0.050262
  H     -1.391999   -0.651225   -0.953713
  H     -1.525826   -0.576623    0.814624
  O      1.290633    0.498991   -0.322072
  O     -0.583831    1.655437    0.199247
  H      0.064971    2.384803    0.090426

 Multiplicity           Mult            ....    1
 Number of Electrons    NEL             ....   40
 Basis Dimension        Dim             ....   95

ORBITAL ENERGIES
----------------

  NO   OCC          E(Eh)            E(eV)
   0   2.0000     -18.808712      -511.8111
   1   2.0000     -18.750852      -510.2366
   2   2.0000     -13.975864      -380.3026
   3   2.0000     -10.019736      -272.6509
   4   2.0000      -9.936484      -270.3855
   5   2.0000      -1.006020       -27.3752
   6   2.0000      -0.918079       -24.9822
   7   2.0000      -0.797643       -21.7050
   8   2.0000      -0.646214       -17.5844
   9   2.0000      -0.537107       -14.6154
  10   2.0000      -0.465165       -12.6578
  11   2.0000      -0.432910       -11.7801
  12   2.0000      -0.423765       -11.5312
  13   2.0000      -0.388097       -10.5607
  14   2.0000      -0.375757       -10.2249
  15   2.0000      -0.350472        -9.5368
  16   2.0000      -0.333035        -9.0624
  17   2.0000      -0.280368        -7.6292
  18   2.0000      -0.235928        -6.4199
  19   2.0000      -0.191747        -5.2177
  20   0.0000      -0.031879        -0.8675
  21   0.0000       0.026776         0.7286
  22   0.0000       0.039639         1.0786
  23   0.0000       0.078099         2.1252
  24   0.0000       0.106479         2.8974

MULLIKEN ATOMIC CHARGES
-----------------------
   0 N :   -0.215093
   1 C :    0.055695
   2 H :    0.104272
   3 H :    0.096509
   4 C :    0.054801
   5 H :    0.036740
   6 H :    0.044704
   7 O :   -0.201298
   8 O :   -0.152589
   9 H :    0.176261
Sum of atomic charges:   -0.0000000

LOEWDIN ATOMIC CHARGES
----------------------
   0 N :   -0.116487
   1 C :   -0.026493
   2 H :    0.057319
   3 H :    0.061128
   4 C :    0.051640
   5 H :    0.030077
   6 H :    0.036955
   7 O :   -0.164106
   8 O :   -0.026248
   9 H :    0.096214

  Mayer bond orders larger than 0.1
B(  0-N ,  1-C ) :   1.1078 B(  0-N ,  2-H ) :   0.9457 B(  0-N ,  3-H ) :   0.9577
B(  1-C ,  4-C ) :   0.9652 B(  1-C ,  5-H ) :   0.8957 B(  1-C ,  6-H ) :   0.9225
B(  4-C ,  7-O ) :   2.0787 B(  4-C ,  8-O ) :   1.2393 B(  8-O ,  9-H ) :   0.9434

FINAL SINGLE POINT ENERGY      -283.901065850122

DIPOLE MOMENT
-------------
                                X             Y             Z
Electronic contribution:      1.75152       3.41431       0.10674
Nuclear contribution   :     -2.33385      -3.26432      -0.52452
                        -----------------------------------------
Total Dipole Moment    :     -0.58233       0.15000      -0.41778
                        -----------------------------------------
Magnitude (a.u.)       :      0.73222
Magnitude (Debye)      :      1.86116

VIBRATIONAL FREQUENCIES
-----------------------

   0:         0.00 cm**-1
   1:         0.00 cm**-1
   2:         0.00 cm**-1
   3:         0.00 cm**-1
   4:         0.00 cm**-1
   5:         0.00 cm**-1
   6:       103.56 cm**-1
   7:       196.90 cm**-1
   8:       278.86 cm**-1
   9:       455.76 cm**-1
  10:       509.93 cm**-1
  11:       619.67 cm**-1
  12:       673.41 cm**-1
  13:       810.80 cm**-1
  14:       832.39 cm**-1
  15:       983.40 cm**-1
  16:      1102.86 cm**-1
  17:      1124.39 cm**-1
  18:      1177.28 cm**-1
  19:      1218.68 cm**-1
  20:      1295.33 cm**-1
  21:      1401.10 cm**-1
  22:      1427.78 cm**-1
  23:      1561.61 cm**-1
  24:      1805.45 cm**-1
  25:      2842.13 cm**-1
  26:      2978.52 cm**-1
  27:      3415.12 cm**-1
  28:      3511.73 cm**-1
  29:      3621.50 cm**-1

IR SPECTRUM
-----------

 Mode    freq (cm**-1)   T**2         TX         TY         TZ
-------------------------------------------------------------------
   6:       103.56    2.841895  (  0.675678  -1.507524   0.335745)
   7:       196.90   53.654754  ( -4.647681  -5.418532   1.641137)
   8:       278.86    1.366500  (  0.395940   0.385255  -1.030199)
   9:       455.76   13.066629  (  0.314436  -2.981226  -2.019914)
  10:       509.93   17.950795  ( -1.208938   2.635125  -3.089560)
  11:       619.67   26.739011  ( -1.179579  -4.627480  -1.983439)
  12:       673.41   84.483818  ( -1.535701   0.902152  -9.017292)
  13:       810.80  176.326285  (  6.266914  -7.372802   9.093616)
  14:       832.39   18.578565  ( -0.469088  -4.193314  -0.880135)
  15:       983.40    4.387908  (  0.302450   1.635010  -1.274038)
  16:      1102.86    2.051614  ( -0.694922   1.238351  -0.187576)
  17:      1124.39  183.864686  (  4.679983 -12.517783  -2.295115)
  18:      1177.28   65.617495  ( -1.536557   7.818944   1.456232)
  19:      1218.68    2.598368  (  0.340848   1.452145   0.611119)
  20:      1295.33   28.560494  (  0.868909  -5.251757  -0.473859)
  21:      1401.10   51.167926  ( -2.335621  -6.672768  -1.089480)
  22:      1427.78    2.221973  (  0.795304  -0.768223  -0.999649)
  23:      1561.61   53.016706  (  3.916717  -5.108475  -3.402870)
  24:      1805.45  248.498980  ( 15.153669  -3.162201  -2.977548)
  25:      2842.13   62.723640  ( -4.639930   4.026450  -4.998239)
  26:      2978.52   19.583112  ( -2.832316   1.972808   2.769319)
  27:      3415.12    7.457897  ( -1.742341  -1.677802   1.267724)
  28:      3511.73    7.164471  (  1.973244   1.807298   0.066729)
  29:      3621.50   51.508178  ( -3.271784  -6.377569   0.360863)

--------------------------
THERMOCHEMISTRY AT 298.15K
--------------------------

Temperature         ... 298.15 K
Pressure            ... 1.00 atm
Total Mass          ... 75.07 AMU

Throughout the following assumptions are being made:
  (1) The electronic state is orbitally nondegenerate
  (2) There are no thermally accessible electronically excited states
  (3) Hindered rotations indicated by low frequency modes are not
      treated as such but are treated as vibrations and this may
      cause some error
  (4) All equations used are the standard statistical mechanics
      equations for an ideal gas
  (5) All vibrations are strictly harmonic

freq.     103.56  E(vib)   ...       0.46
freq.     196.90  E(vib)   ...       0.35
freq.     278.86  E(vib)   ...       0.28
freq.     455.76  E(vib)   ...       0.16
freq.     509.93  E(vib)   ...       0.14
freq.     619.67  E(vib)   ...       0.09
freq.     673.41  E(vib)   ...       0.08
freq.     810.80  E(vib)   ...       0.05
freq.     832.39  E(vib)   ...       0.04
freq.     983.40  E(vib)   ...       0.02
freq.    1102.86  E(vib)   ...       0.02
freq.    1124.39  E(vib)   ...       0.01
freq.    1177.28  E(vib)   ...       0.01
freq.    1218.68  E(vib)   ...       0.01
freq.    1295.33  E(vib)   ...       0.01
freq.    1401.10  E(vib)   ...       0.00
freq.    1427.78  E(vib)   ...       0.00
freq.    1561.61  E(vib)   ...       0.00
freq.    1805.45  E(vib)   ...       0.00
freq.    2842.13  E(vib)   ...       0.00
freq.    2978.52  E(vib)   ...       0.00
freq.    3415.12  E(vib)   ...       0.00
freq.    3511.73  E(vib)   ...       0.00
freq.    3621.50  E(vib)   ...       0.00

------------
INNER ENERGY
------------

The inner energy is: U= E(el) + E(ZPE) + E(vib) + E(rot) + E(trans)
    E(el)   - is the total energy from the electronic structure calculation
              = E(kin-el) + E(nuc-el) + E(el-el) + E(nuc-nuc)
    E(ZPE)  - the the zero temperature vibrational energy from the frequency calculation
    E(vib)  - the the finite temperature correction to E(ZPE) due to population
              of excited vibrational states
    E(rot)  - is the rotational thermal energy
    E(trans)- is the translational thermal energy

Summary of contributions to the inner energy U:
Electronic energy                ...   -283.90106585 Eh
Zero point energy                ...      0.07733958 Eh      48.53 kcal/mol
Thermal vibrational correction   ...      0.00278593 Eh       1.75 kcal/mol
Thermal rotational correction    ...      0.00141627 Eh       0.89 kcal/mol
Thermal translational correction ...      0.00141627 Eh       0.89 kcal/mol
-----------------------------------------------------------------------
Total thermal energy                   -283.81810780 Eh

Summary of corrections to the electronic energy:
(perhaps to be used in another calculation)
Total thermal correction                  0.00561847 Eh       3.53 kcal/mol
Non-thermal (ZPE) correction              0.07733958 Eh      48.53 kcal/mol
-----------------------------------------------------------------------
Total correction                          0.08295805 Eh      52.06 kcal/mol

--------
ENTHALPY
--------

The enthalpy is H = U + kB*T
                kB is Boltzmann's constant
Total free energy                 ...   -283.81810780 Eh
Thermal Enthalpy correction       ...      0.00094421 Eh       0.59 kcal/mol
-----------------------------------------------------------------------
Total Enthalpy                    ...   -283.81716359 Eh

Vibrational entropy computed according to the QRRHO of S. Grimme
Chem.Eur.J. 2012 18 9955

check

-------
ENTROPY
-------

The entropy contributions are T*S = T*(S(el)+S(vib)+S(rot)+S(trans)
     S(el)   - electronic entropy
     S(vib)  - vibrational entropy
     S(rot)  - rotational entropy
     S(trans)- translational entropy
The entropies will be listed as mutliplied by the temperature to get
units of energy

Electronic entropy                ...      0.00000000 Eh      0.00 kcal/mol
Vibrational entropy               ...      0.00463768 Eh      2.91 kcal/mol
Rotational entropy                ...      0.01103406 Eh      6.92 kcal/mol
Translational entropy             ...      0.01846507 Eh     11.59 kcal/mol
-----------------------------------------------------------------------
Final entropy term                ...      0.03413681 Eh     21.42 kcal/mol

CAUTION: The rotational entropy is not quite correctly treated here
         because it includes a symmetry number that is not yet correctly
         implemented in ORCA!
For a nonlinear molecule the correct rotational entropy is:
    S(rot) = R*(ln(qrot/sn)+1.5)
    R    = 8.31441 J/mol/K = 1.987191683e-3 kcal/mol/K
    qrot = 79617.5478575
    sn is the rotational symmetry number. We have assumed 3 here
       if it is different for your molecule then you should correct
       the printed rotational entropy by manually evaluating the equation
       as given above

For convenience we print out the resulting values for sn=1 - 12:
 sn= 1  qrot/sn=   79617.5479 T*S(rot)=     7.57 kcal/mol T*S(tot)=    22.07 kcal/mol
 sn= 2  qrot/sn=   39808.7739 T*S(rot)=     7.16 kcal/mol T*S(tot)=    21.66 kcal/mol
 sn= 3  qrot/sn=   26539.1826 T*S(rot)=     6.92 kcal/mol T*S(tot)=    21.42 kcal/mol
 sn= 4  qrot/sn=   19904.3870 T*S(rot)=     6.75 kcal/mol T*S(tot)=    21.25 kcal/mol
 sn= 5  qrot/sn=   15923.5096 T*S(rot)=     6.62 kcal/mol T*S(tot)=    21.12 kcal/mol
 sn= 6  qrot/sn=   13269.5913 T*S(rot)=     6.51 kcal/mol T*S(tot)=    21.01 kcal/mol
 sn= 7  qrot/sn=   11373.9354 T*S(rot)=     6.42 kcal/mol T*S(tot)=    20.92 kcal/mol
 sn= 8  qrot/sn=    9952.1935 T*S(rot)=     6.34 kcal/mol T*S(tot)=    20.84 kcal/mol
 sn= 9  qrot/sn=    8846.3942 T*S(rot)=     6.27 kcal/mol T*S(tot)=    20.77 kcal/mol
 sn=10  qrot/sn=    7961.7548 T*S(rot)=     6.21 kcal/mol T*S(tot)=    20.71 kcal/mol
 sn=11  qrot/sn=    7237.9589 T*S(rot)=     6.15 kcal/mol T*S(tot)=    20.65 kcal/mol
 sn=12  qrot/sn=    6634.7957 T*S(rot)=     6.10 kcal/mol T*S(tot)=    20.60 kcal/mol

-------------------
GIBBS FREE ENTHALPY
-------------------

The Gibbs free enthalpy is G = H - T*S

Total enthalpy                    ...   -283.81716359 Eh
Total entropy correction          ...     -0.03413681 Eh    -21.42 kcal/mol
-----------------------------------------------------------------------
Final Gibbs free enthalpy         ...   -283.85130040 Eh

For completeness - the Gibbs free enthalpy minus the electronic energy
G-E(el)                           ...      0.04976545 Eh     31.23 kcal/mol

                             ****ORCA TERMINATED NORMALLY****
TOTAL RUN TIME: 0 days 0 hours 2 minutes 17 seconds 970 msec
