                         Program Version 4.0.0 -  RELEASE  -
|  1> ! rks pbe def2-svp opt anfreq
|  2>
|  3> * xyz 0 1
|  4> N                     0.21809  -1.84603   0.
|  5> C                    -0.77997  -0.79559   0.
|  6> H                     0.51748  -1.93228   0.92982
|  7> H                     0.51748  -1.93228  -0.92982
|  8> C                    -0.11126   0.57149   0.
|  9> H                    -1.39982  -0.87166  -0.91821
| 10> H                    -1.39982  -0.87166   0.91821
| 11> O                    -0.81377   1.6155    0.
| 12> O                     1.31533   0.66956   0.
| 13> H                     1.5729    1.59428   0.
| 14> *
| 15>
| 16>                          ****END OF INPUT****
 Total Charge           Charge          ....    0
 Multiplicity           Mult            ....    1
 Number of Electrons    NEL             ....   40
FINAL SINGLE POINT ENERGY      -283.862734355993
FINAL SINGLE POINT ENERGY      -283.884431156642
FINAL SINGLE POINT ENERGY      -283.893394455821
FINAL SINGLE POINT ENERGY      -283.897774933271
FINAL SINGLE POINT ENERGY      -283.900154625139
FINAL SINGLE POINT ENERGY      -283.901225914821
FINAL SINGLE POINT ENERGY      -283.901573759331
FINAL SINGLE POINT ENERGY      -283.901657450795
FINAL SINGLE POINT ENERGY      -283.901663974759
                    ***********************HURRAY********************

CARTESIAN COORDINATES (ANGSTROEM)
---------------------------------
  N      0.078592   -1.945457    0.000001
  C     -0.774163   -0.774555   -0.000002
  H      0.702917   -1.920811    0.815926
  H      0.702911   -1.920819   -0.815929
  C     -0.137738    0.617676   -0.000013
  H     -1.456939   -0.793612   -0.878448
  H     -1.456931   -0.793602    0.878451
  O     -0.758725    1.662469    0.000002
  O      1.222192    0.565977    0.000002
  H      1.514524    1.504062    0.000009

 Multiplicity           Mult            ....    1
 Number of Electrons    NEL             ....   40
 Basis Dimension        Dim             ....   95

ORBITAL ENERGIES
----------------

  NO   OCC          E(Eh)            E(eV)
   0   2.0000     -18.809442      -511.8309
   1   2.0000     -18.745449      -510.0896
   2   2.0000     -13.984414      -380.5353
   3   2.0000     -10.014329      -272.5037
   4   2.0000      -9.937422      -270.4110
   5   2.0000      -1.003211       -27.2988
   6   2.0000      -0.913703       -24.8631
   7   2.0000      -0.803992       -21.8777
   8   2.0000      -0.637485       -17.3468
   9   2.0000      -0.553020       -15.0484
  10   2.0000      -0.455596       -12.3974
  11   2.0000      -0.443433       -12.0664
  12   2.0000      -0.419247       -11.4083
  13   2.0000      -0.393579       -10.7098
  14   2.0000      -0.372426       -10.1342
  15   2.0000      -0.346356        -9.4248
  16   2.0000      -0.327129        -8.9016
  17   2.0000      -0.276260        -7.5174
  18   2.0000      -0.248566        -6.7638
  19   2.0000      -0.193807        -5.2738
  20   0.0000      -0.030447        -0.8285
  21   0.0000       0.017330         0.4716
  22   0.0000       0.050936         1.3860
  23   0.0000       0.075321         2.0496
  24   0.0000       0.080656         2.1948

MULLIKEN ATOMIC CHARGES
-----------------------
   0 N :   -0.194611
   1 C :    0.010740
   2 H :    0.099414
   3 H :    0.099414
   4 C :    0.046265
   5 H :    0.061860
   6 H :    0.061861
   7 O :   -0.197523
   8 O :   -0.163406
   9 H :    0.175987
Sum of atomic charges:   -0.0000000

LOEWDIN ATOMIC CHARGES
----------------------
   0 N :   -0.102200
   1 C :   -0.037085
   2 H :    0.058965
   3 H :    0.058965
   4 C :    0.031505
   5 H :    0.050913
   6 H :    0.050914
   7 O :   -0.167899
   8 O :   -0.038003
   9 H :    0.093926

  Mayer bond orders larger than 0.1
B(  0-N ,  1-C ) :   1.1459 B(  0-N ,  2-H ) :   0.9722 B(  0-N ,  3-H ) :   0.9722
B(  1-C ,  4-C ) :   0.9204 B(  1-C ,  5-H ) :   0.9306 B(  1-C ,  6-H ) :   0.9306
B(  4-C ,  7-O ) :   2.0756 B(  4-C ,  8-O ) :   1.2447 B(  8-O ,  9-H ) :   0.9424

FINAL SINGLE POINT ENERGY      -283.901663433695

DIPOLE MOMENT
-------------
                                X             Y             Z
Electronic contribution:      0.58973       3.71511      -0.00002
Nuclear contribution   :      0.16638      -3.82122       0.00001
                        -----------------------------------------
Total Dipole Moment    :      0.75611      -0.10610      -0.00000
                        -----------------------------------------
Magnitude (a.u.)       :      0.76352
Magnitude (Debye)      :      1.94071

VIBRATIONAL FREQUENCIES
-----------------------

   0:         0.00 cm**-1
   1:         0.00 cm**-1
   2:         0.00 cm**-1
   3:         0.00 cm**-1
   4:         0.00 cm**-1
   5:         0.00 cm**-1
   6:        53.84 cm**-1
   7:       256.33 cm**-1
   8:       268.87 cm**-1
   9:       489.58 cm**-1
  10:       502.83 cm**-1
  11:       586.00 cm**-1
  12:       688.21 cm**-1
  13:       789.68 cm**-1
  14:       872.49 cm**-1
  15:       881.26 cm**-1
  16:      1131.65 cm**-1
  17:      1135.41 cm**-1
  18:      1142.38 cm**-1
  19:      1290.91 cm**-1
  20:      1318.79 cm**-1
  21:      1329.14 cm**-1
  22:      1371.46 cm**-1
  23:      1599.94 cm**-1
  24:      1806.21 cm**-1
  25:      2971.64 cm**-1
  26:      3015.82 cm**-1
  27:      3419.77 cm**-1
  28:      3493.94 cm**-1
  29:      3617.25 cm**-1

IR SPECTRUM
-----------

 Mode    freq (cm**-1)   T**2         TX         TY         TZ
-------------------------------------------------------------------
   6:        53.84    0.012079  ( -0.000208   0.000249  -0.109906)
   7:       256.33    2.693133  (  1.033737  -1.274567  -0.000170)
   8:       268.87   42.237449  ( -0.000174   0.000009  -6.499034)
   9:       489.58   13.125076  ( -0.751173  -3.544124  -0.000407)
  10:       502.83   27.120048  ( -0.000593   0.000061   5.207691)
  11:       586.00   47.486735  ( -6.887462  -0.222710  -0.000002)
  12:       688.21   95.265653  ( -0.000124   0.000063   9.760413)
  13:       789.68   98.299085  (  0.214682   9.912265   0.000019)
  14:       872.49  125.936341  (  2.689340  10.895127  -0.000111)
  15:       881.26    3.872043  (  0.000246  -0.000422   1.967751)
  16:      1131.65  121.203208  ( 11.007516  -0.194403  -0.000067)
  17:      1135.41    0.882889  ( -0.000787   0.000650  -0.939621)
  18:      1142.38  104.235170  (  9.880209   2.572285   0.000203)
  19:      1290.91   17.754864  (  0.768936  -4.142898  -0.000007)
  20:      1318.79   56.047234  ( -7.042051  -2.541014   0.000011)
  21:      1329.14    0.863259  (  0.000304   0.000136  -0.929117)
  22:      1371.46    1.234169  (  0.421755  -1.027761   0.000006)
  23:      1599.94   21.985233  (  4.685140   0.186268  -0.000016)
  24:      1806.21  238.859891  (-10.022468  11.764779  -0.000035)
  25:      2971.64   15.724827  (  3.285119  -2.220995   0.000054)
  26:      3015.82    4.322064  ( -0.000042  -0.000093  -2.078958)
  27:      3419.77    0.773489  ( -0.859034  -0.188547  -0.000001)
  28:      3493.94    2.529242  (  0.000012  -0.000002   1.590359)
  29:      3617.25   49.734458  ( -3.666932  -6.023958  -0.000075)

--------------------------
THERMOCHEMISTRY AT 298.15K
--------------------------

Temperature         ... 298.15 K
Pressure            ... 1.00 atm
Total Mass          ... 75.07 AMU

Throughout the following assumptions are being made:
  (1) The electronic state is orbitally nondegenerate
  (2) There are no thermally accessible electronically excited states
  (3) Hindered rotations indicated by low frequency modes are not
      treated as such but are treated as vibrations and this may
      cause some error
  (4) All equations used are the standard statistical mechanics
      equations for an ideal gas
  (5) All vibrations are strictly harmonic

freq.      53.84  E(vib)   ...       0.52
freq.     256.33  E(vib)   ...       0.30
freq.     268.87  E(vib)   ...       0.29
freq.     489.58  E(vib)   ...       0.15
freq.     502.83  E(vib)   ...       0.14
freq.     586.00  E(vib)   ...       0.11
freq.     688.21  E(vib)   ...       0.07
freq.     789.68  E(vib)   ...       0.05
freq.     872.49  E(vib)   ...       0.04
freq.     881.26  E(vib)   ...       0.04
freq.    1131.65  E(vib)   ...       0.01
freq.    1135.41  E(vib)   ...       0.01
freq.    1142.38  E(vib)   ...       0.01
freq.    1290.91  E(vib)   ...       0.01
freq.    1318.79  E(vib)   ...       0.01
freq.    1329.14  E(vib)   ...       0.01
freq.    1371.46  E(vib)   ...       0.01
freq.    1599.94  E(vib)   ...       0.00
freq.    1806.21  E(vib)   ...       0.00
freq.    2971.64  E(vib)   ...       0.00
freq.    3015.82  E(vib)   ...       0.00
freq.    3419.77  E(vib)   ...       0.00
freq.    3493.94  E(vib)   ...       0.00
freq.    3617.25  E(vib)   ...       0.00

------------
INNER ENERGY
------------

The inner energy is: U= E(el) + E(ZPE) + E(vib) + E(rot) + E(trans)
    E(el)   - is the total energy from the electronic structure calculation
              = E(kin-el) + E(nuc-el) + E(el-el) + E(nuc-nuc)
    E(ZPE)  - the the zero temperature vibrational energy from the frequency calculation
    E(vib)  - the the finite temperature correction to E(ZPE) due to population
              of excited vibrational states
    E(rot)  - is the rotational thermal energy
    E(trans)- is the translational thermal energy

Summary of contributions to the inner energy U:
Electronic energy                ...   -283.90166343 Eh
Zero point energy                ...      0.07753378 Eh      48.65 kcal/mol
Thermal vibrational correction   ...      0.00281337 Eh       1.77 kcal/mol
Thermal rotational correction    ...      0.00141627 Eh       0.89 kcal/mol
Thermal translational correction ...      0.00141627 Eh       0.89 kcal/mol
-----------------------------------------------------------------------
Total thermal energy                   -283.81848375 Eh

Summary of corrections to the electronic energy:
(perhaps to be used in another calculation)
Total thermal correction                  0.00564591 Eh       3.54 kcal/mol
Non-thermal (ZPE) correction              0.07753378 Eh      48.65 kcal/mol
-----------------------------------------------------------------------
Total correction                          0.08317969 Eh      52.20 kcal/mol

--------
ENTHALPY
--------

The enthalpy is H = U + kB*T
                kB is Boltzmann's constant
Total free energy                 ...   -283.81848375 Eh
Thermal Enthalpy correction       ...      0.00094421 Eh       0.59 kcal/mol
-----------------------------------------------------------------------
Total Enthalpy                    ...   -283.81753954 Eh

Vibrational entropy computed according to the QRRHO of S. Grimme
Chem.Eur.J. 2012 18 9955

check

-------
ENTROPY
-------

The entropy contributions are T*S = T*(S(el)+S(vib)+S(rot)+S(trans)
     S(el)   - electronic entropy
     S(vib)  - vibrational entropy
     S(rot)  - rotational entropy
     S(trans)- translational entropy
The entropies will be listed as mutliplied by the temperature to get
units of energy

Electronic entropy                ...      0.00000000 Eh      0.00 kcal/mol
Vibrational entropy               ...      0.00465155 Eh      2.92 kcal/mol
Rotational entropy                ...      0.01105227 Eh      6.94 kcal/mol
Translational entropy             ...      0.01846507 Eh     11.59 kcal/mol
-----------------------------------------------------------------------
Final entropy term                ...      0.03416889 Eh     21.44 kcal/mol

CAUTION: The rotational entropy is not quite correctly treated here
         because it includes a symmetry number that is not yet correctly
         implemented in ORCA!
For a nonlinear molecule the correct rotational entropy is:
    S(rot) = R*(ln(qrot/sn)+1.5)
    R    = 8.31441 J/mol/K = 1.987191683e-3 kcal/mol/K
    qrot = 81168.4016148
    sn is the rotational symmetry number. We have assumed 3 here
       if it is different for your molecule then you should correct
       the printed rotational entropy by manually evaluating the equation
       as given above

For convenience we print out the resulting values for sn=1 - 12:
 sn= 1  qrot/sn=   81168.4016 T*S(rot)=     7.59 kcal/mol T*S(tot)=    22.09 kcal/mol
 sn= 2  qrot/sn=   40584.2008 T*S(rot)=     7.18 kcal/mol T*S(tot)=    21.68 kcal/mol
 sn= 3  qrot/sn=   27056.1339 T*S(rot)=     6.94 kcal/mol T*S(tot)=    21.44 kcal/mol
 sn= 4  qrot/sn=   20292.1004 T*S(rot)=     6.76 kcal/mol T*S(tot)=    21.27 kcal/mol
 sn= 5  qrot/sn=   16233.6803 T*S(rot)=     6.63 kcal/mol T*S(tot)=    21.14 kcal/mol
 sn= 6  qrot/sn=   13528.0669 T*S(rot)=     6.52 kcal/mol T*S(tot)=    21.03 kcal/mol
 sn= 7  qrot/sn=   11595.4859 T*S(rot)=     6.43 kcal/mol T*S(tot)=    20.94 kcal/mol
 sn= 8  qrot/sn=   10146.0502 T*S(rot)=     6.35 kcal/mol T*S(tot)=    20.86 kcal/mol
 sn= 9  qrot/sn=    9018.7113 T*S(rot)=     6.28 kcal/mol T*S(tot)=    20.79 kcal/mol
 sn=10  qrot/sn=    8116.8402 T*S(rot)=     6.22 kcal/mol T*S(tot)=    20.73 kcal/mol
 sn=11  qrot/sn=    7378.9456 T*S(rot)=     6.17 kcal/mol T*S(tot)=    20.67 kcal/mol
 sn=12  qrot/sn=    6764.0335 T*S(rot)=     6.11 kcal/mol T*S(tot)=    20.62 kcal/mol

-------------------
GIBBS FREE ENTHALPY
-------------------

The Gibbs free enthalpy is G = H - T*S

Total enthalpy                    ...   -283.81753954 Eh
Total entropy correction          ...     -0.03416889 Eh    -21.44 kcal/mol
-----------------------------------------------------------------------
Final Gibbs free enthalpy         ...   -283.85170843 Eh

For completeness - the Gibbs free enthalpy minus the electronic energy
G-E(el)                           ...      0.04995501 Eh     31.35 kcal/mol

                             ****ORCA TERMINATED NORMALLY****
TOTAL RUN TIME: 0 days 0 hours 2 minutes 10 seconds 472 msec
