                         Program Version 4.0.0 -  RELEASE  -
|  1> ! rks pbe def2-svp opt anfreq
|  2>
|  3> * xyz 0 1
|  4> N                     0.0438   -1.92595   0.
|  5> C                    -0.79717  -0.74596   0.
|  6> H                     0.86105  -1.67231  -0.5189
|  7> H                    -0.58115  -2.70014  -0.10748
|  8> C                     0.05661   0.51399   0.
|  9> H                    -1.42307  -0.74417  -0.90115
| 10> H                    -1.42307  -0.74417   0.90115
| 11> O                    -0.49262   1.64619   0.
| 12> O                     1.48291   0.41117   0.
| 13> H                     1.86759   1.29071   0.
| 14> *
| 15>
| 16>                          ****END OF INPUT****
 Total Charge           Charge          ....    0
 Multiplicity           Mult            ....    1
 Number of Electrons    NEL             ....   40
FINAL SINGLE POINT ENERGY      -283.872154434100
FINAL SINGLE POINT ENERGY      -283.890355468366
FINAL SINGLE POINT ENERGY      -283.895515778134
FINAL SINGLE POINT ENERGY      -283.896851543549
FINAL SINGLE POINT ENERGY      -283.897544387129
FINAL SINGLE POINT ENERGY      -283.898065994350
FINAL SINGLE POINT ENERGY      -283.898301084647
FINAL SINGLE POINT ENERGY      -283.898499831362
FINAL SINGLE POINT ENERGY      -283.898592688813
FINAL SINGLE POINT ENERGY      -283.898674958136
FINAL SINGLE POINT ENERGY      -283.898709509516
FINAL SINGLE POINT ENERGY      -283.898715337928
FINAL SINGLE POINT ENERGY      -283.898715131373
                    ***********************HURRAY********************

CARTESIAN COORDINATES (ANGSTROEM)
---------------------------------
  N      0.057416   -1.914652    0.182508
  C     -0.742192   -0.722136   -0.046060
  H      0.864659   -1.917713   -0.452926
  H     -0.494453   -2.750943   -0.041909
  C      0.043904    0.569670    0.101681
  H     -1.227893   -0.637650   -1.057565
  H     -1.572550   -0.662448    0.686874
  O     -0.421697    1.635503    0.452587
  O      1.340639    0.420832   -0.277906
  H      1.747047    1.308898   -0.173664

 Multiplicity           Mult            ....    1
 Number of Electrons    NEL             ....   40
 Basis Dimension        Dim             ....   95

ORBITAL ENERGIES
----------------

  NO   OCC          E(Eh)            E(eV)
   0   2.0000     -18.806649      -511.7549
   1   2.0000     -18.744698      -510.0692
   2   2.0000     -13.982762      -380.4903
   3   2.0000     -10.016574      -272.5648
   4   2.0000      -9.936690      -270.3911
   5   2.0000      -1.002069       -27.2677
   6   2.0000      -0.912603       -24.8332
   7   2.0000      -0.802274       -21.8310
   8   2.0000      -0.641484       -17.4557
   9   2.0000      -0.548966       -14.9381
  10   2.0000      -0.449048       -12.2192
  11   2.0000      -0.433384       -11.7930
  12   2.0000      -0.420056       -11.4303
  13   2.0000      -0.403556       -10.9813
  14   2.0000      -0.370157       -10.0725
  15   2.0000      -0.343310        -9.3419
  16   2.0000      -0.337899        -9.1947
  17   2.0000      -0.277034        -7.5385
  18   2.0000      -0.230860        -6.2820
  19   2.0000      -0.195608        -5.3228
  20   0.0000      -0.029956        -0.8151
  21   0.0000       0.020955         0.5702
  22   0.0000       0.047764         1.2997
  23   0.0000       0.076065         2.0698
  24   0.0000       0.093121         2.5339

MULLIKEN ATOMIC CHARGES
-----------------------
   0 N :   -0.218314
   1 C :    0.050773
   2 H :    0.105406
   3 H :    0.098712
   4 C :    0.059625
   5 H :    0.036291
   6 H :    0.048802
   7 O :   -0.194665
   8 O :   -0.164296
   9 H :    0.177665
Sum of atomic charges:   -0.0000000

LOEWDIN ATOMIC CHARGES
----------------------
   0 N :   -0.117467
   1 C :   -0.024919
   2 H :    0.057052
   3 H :    0.061931
   4 C :    0.051785
   5 H :    0.028467
   6 H :    0.043105
   7 O :   -0.163174
   8 O :   -0.032421
   9 H :    0.095640

  Mayer bond orders larger than 0.1
B(  0-N ,  1-C ) :   1.0796 B(  0-N ,  2-H ) :   0.9545 B(  0-N ,  3-H ) :   0.9572
B(  1-C ,  4-C ) :   0.9721 B(  1-C ,  5-H ) :   0.8933 B(  1-C ,  6-H ) :   0.9334
B(  4-C ,  7-O ) :   2.1000 B(  4-C ,  8-O ) :   1.2294 B(  8-O ,  9-H ) :   0.9419

FINAL SINGLE POINT ENERGY      -283.898714395691

DIPOLE MOMENT
-------------
                                X             Y             Z
Electronic contribution:      1.26904       3.77026       0.59757
Nuclear contribution   :     -1.03189      -4.32372      -1.28435
                        -----------------------------------------
Total Dipole Moment    :      0.23714      -0.55346      -0.68678
                        -----------------------------------------
Magnitude (a.u.)       :      0.91336
Magnitude (Debye)      :      2.32157

VIBRATIONAL FREQUENCIES
-----------------------

   0:         0.00 cm**-1
   1:         0.00 cm**-1
   2:         0.00 cm**-1
   3:         0.00 cm**-1
   4:         0.00 cm**-1
   5:         0.00 cm**-1
   6:        69.61 cm**-1
   7:       227.83 cm**-1
   8:       282.68 cm**-1
   9:       456.02 cm**-1
  10:       533.91 cm**-1
  11:       591.25 cm**-1
  12:       691.19 cm**-1
  13:       801.11 cm**-1
  14:       823.96 cm**-1
  15:       977.55 cm**-1
  16:      1072.32 cm**-1
  17:      1119.91 cm**-1
  18:      1185.20 cm**-1
  19:      1244.01 cm**-1
  20:      1313.69 cm**-1
  21:      1375.15 cm**-1
  22:      1420.21 cm**-1
  23:      1575.24 cm**-1
  24:      1815.74 cm**-1
  25:      2831.48 cm**-1
  26:      3029.37 cm**-1
  27:      3420.07 cm**-1
  28:      3504.44 cm**-1
  29:      3621.96 cm**-1

IR SPECTRUM
-----------

 Mode    freq (cm**-1)   T**2         TX         TY         TZ
-------------------------------------------------------------------
   6:        69.61    3.456094  (  1.597433   0.022523  -0.950680)
   7:       227.83   34.166269  ( -4.137391  -3.697176   1.838249)
   8:       282.68   13.294987  (  1.660380   2.839858  -1.572683)
   9:       456.02    7.790583  ( -0.741865  -0.890797  -2.539035)
  10:       533.91   17.282140  ( -2.287879  -2.156570   2.719735)
  11:       591.25   46.036324  (  5.754941   1.768349   3.128885)
  12:       691.19   92.404228  (  0.072623   3.186776  -9.068815)
  13:       801.11  145.521226  ( -6.759214   4.642028  -8.847928)
  14:       823.96   18.634634  ( -1.521721   3.756582  -1.485628)
  15:       977.55   13.973533  ( -1.020522  -2.764114   2.300379)
  16:      1072.32   51.657956  (  6.592028   2.412582  -1.543557)
  17:      1119.91  114.074646  ( 10.558601  -0.626954  -1.482401)
  18:      1185.20   62.712572  (  7.490088   1.316241  -2.208771)
  19:      1244.01    9.355758  (  0.362640   3.037124  -0.011399)
  20:      1313.69   37.025087  ( -5.240826  -3.010406   0.704474)
  21:      1375.15   48.000052  (  6.890361  -0.433064  -0.579169)
  22:      1420.21   11.420868  ( -1.904898   2.690179   0.745096)
  23:      1575.24   34.309090  ( -0.716718   4.891404   3.141587)
  24:      1815.74  256.221126  ( -7.883413  12.821790   5.447443)
  25:      2831.48   70.245714  ( -4.542846   4.188102  -5.662867)
  26:      3029.37    8.345584  ( -1.930022   0.971361   1.917566)
  27:      3420.07    1.383047  ( -0.628095  -0.534143   0.838591)
  28:      3504.44    3.018137  ( -1.616108  -0.344916   0.536063)
  29:      3621.96   51.813839  ( -4.386016  -5.703554  -0.214904)

--------------------------
THERMOCHEMISTRY AT 298.15K
--------------------------

Temperature         ... 298.15 K
Pressure            ... 1.00 atm
Total Mass          ... 75.07 AMU

Throughout the following assumptions are being made:
  (1) The electronic state is orbitally nondegenerate
  (2) There are no thermally accessible electronically excited states
  (3) Hindered rotations indicated by low frequency modes are not
      treated as such but are treated as vibrations and this may
      cause some error
  (4) All equations used are the standard statistical mechanics
      equations for an ideal gas
  (5) All vibrations are strictly harmonic

freq.      69.61  E(vib)   ...       0.50
freq.     227.83  E(vib)   ...       0.33
freq.     282.68  E(vib)   ...       0.28
freq.     456.02  E(vib)   ...       0.16
freq.     533.91  E(vib)   ...       0.13
freq.     591.25  E(vib)   ...       0.10
freq.     691.19  E(vib)   ...       0.07
freq.     801.11  E(vib)   ...       0.05
freq.     823.96  E(vib)   ...       0.05
freq.     977.55  E(vib)   ...       0.03
freq.    1072.32  E(vib)   ...       0.02
freq.    1119.91  E(vib)   ...       0.01
freq.    1185.20  E(vib)   ...       0.01
freq.    1244.01  E(vib)   ...       0.01
freq.    1313.69  E(vib)   ...       0.01
freq.    1375.15  E(vib)   ...       0.01
freq.    1420.21  E(vib)   ...       0.00
freq.    1575.24  E(vib)   ...       0.00
freq.    1815.74  E(vib)   ...       0.00
freq.    2831.48  E(vib)   ...       0.00
freq.    3029.37  E(vib)   ...       0.00
freq.    3420.07  E(vib)   ...       0.00
freq.    3504.44  E(vib)   ...       0.00
freq.    3621.96  E(vib)   ...       0.00

------------
INNER ENERGY
------------

The inner energy is: U= E(el) + E(ZPE) + E(vib) + E(rot) + E(trans)
    E(el)   - is the total energy from the electronic structure calculation
              = E(kin-el) + E(nuc-el) + E(el-el) + E(nuc-nuc)
    E(ZPE)  - the the zero temperature vibrational energy from the frequency calculation
    E(vib)  - the the finite temperature correction to E(ZPE) due to population
              of excited vibrational states
    E(rot)  - is the rotational thermal energy
    E(trans)- is the translational thermal energy

Summary of contributions to the inner energy U:
Electronic energy                ...   -283.89871440 Eh
Zero point energy                ...      0.07742104 Eh      48.58 kcal/mol
Thermal vibrational correction   ...      0.00279856 Eh       1.76 kcal/mol
Thermal rotational correction    ...      0.00141627 Eh       0.89 kcal/mol
Thermal translational correction ...      0.00141627 Eh       0.89 kcal/mol
-----------------------------------------------------------------------
Total thermal energy                   -283.81566225 Eh

Summary of corrections to the electronic energy:
(perhaps to be used in another calculation)
Total thermal correction                  0.00563111 Eh       3.53 kcal/mol
Non-thermal (ZPE) correction              0.07742104 Eh      48.58 kcal/mol
-----------------------------------------------------------------------
Total correction                          0.08305215 Eh      52.12 kcal/mol

--------
ENTHALPY
--------

The enthalpy is H = U + kB*T
                kB is Boltzmann's constant
Total free energy                 ...   -283.81566225 Eh
Thermal Enthalpy correction       ...      0.00094421 Eh       0.59 kcal/mol
-----------------------------------------------------------------------
Total Enthalpy                    ...   -283.81471804 Eh

Vibrational entropy computed according to the QRRHO of S. Grimme
Chem.Eur.J. 2012 18 9955

check

-------
ENTROPY
-------

The entropy contributions are T*S = T*(S(el)+S(vib)+S(rot)+S(trans)
     S(el)   - electronic entropy
     S(vib)  - vibrational entropy
     S(rot)  - rotational entropy
     S(trans)- translational entropy
The entropies will be listed as mutliplied by the temperature to get
units of energy

Electronic entropy                ...      0.00000000 Eh      0.00 kcal/mol
Vibrational entropy               ...      0.00462648 Eh      2.90 kcal/mol
Rotational entropy                ...      0.01103976 Eh      6.93 kcal/mol
Translational entropy             ...      0.01846507 Eh     11.59 kcal/mol
-----------------------------------------------------------------------
Final entropy term                ...      0.03413131 Eh     21.42 kcal/mol

CAUTION: The rotational entropy is not quite correctly treated here
         because it includes a symmetry number that is not yet correctly
         implemented in ORCA!
For a nonlinear molecule the correct rotational entropy is:
    S(rot) = R*(ln(qrot/sn)+1.5)
    R    = 8.31441 J/mol/K = 1.987191683e-3 kcal/mol/K
    qrot = 80099.8123563
    sn is the rotational symmetry number. We have assumed 3 here
       if it is different for your molecule then you should correct
       the printed rotational entropy by manually evaluating the equation
       as given above

For convenience we print out the resulting values for sn=1 - 12:
 sn= 1  qrot/sn=   80099.8124 T*S(rot)=     7.58 kcal/mol T*S(tot)=    22.07 kcal/mol
 sn= 2  qrot/sn=   40049.9062 T*S(rot)=     7.17 kcal/mol T*S(tot)=    21.66 kcal/mol
 sn= 3  qrot/sn=   26699.9375 T*S(rot)=     6.93 kcal/mol T*S(tot)=    21.42 kcal/mol
 sn= 4  qrot/sn=   20024.9531 T*S(rot)=     6.76 kcal/mol T*S(tot)=    21.25 kcal/mol
 sn= 5  qrot/sn=   16019.9625 T*S(rot)=     6.62 kcal/mol T*S(tot)=    21.12 kcal/mol
 sn= 6  qrot/sn=   13349.9687 T*S(rot)=     6.52 kcal/mol T*S(tot)=    21.01 kcal/mol
 sn= 7  qrot/sn=   11442.8303 T*S(rot)=     6.43 kcal/mol T*S(tot)=    20.92 kcal/mol
 sn= 8  qrot/sn=   10012.4765 T*S(rot)=     6.35 kcal/mol T*S(tot)=    20.84 kcal/mol
 sn= 9  qrot/sn=    8899.9792 T*S(rot)=     6.28 kcal/mol T*S(tot)=    20.77 kcal/mol
 sn=10  qrot/sn=    8009.9812 T*S(rot)=     6.21 kcal/mol T*S(tot)=    20.70 kcal/mol
 sn=11  qrot/sn=    7281.8011 T*S(rot)=     6.16 kcal/mol T*S(tot)=    20.65 kcal/mol
 sn=12  qrot/sn=    6674.9844 T*S(rot)=     6.11 kcal/mol T*S(tot)=    20.60 kcal/mol

-------------------
GIBBS FREE ENTHALPY
-------------------

The Gibbs free enthalpy is G = H - T*S

Total enthalpy                    ...   -283.81471804 Eh
Total entropy correction          ...     -0.03413131 Eh    -21.42 kcal/mol
-----------------------------------------------------------------------
Final Gibbs free enthalpy         ...   -283.84884935 Eh

For completeness - the Gibbs free enthalpy minus the electronic energy
G-E(el)                           ...      0.04986505 Eh     31.29 kcal/mol

                             ****ORCA TERMINATED NORMALLY****
TOTAL RUN TIME: 0 days 0 hours 2 minutes 37 seconds 910 msec
