                         Program Version 4.0.0 -  RELEASE  -
|  1> ! rks pbe def2-svp opt anfreq
|  2>
|  3> * xyz 0 1
|  4> N                     0.21809  -1.84603   0.
|  5> C                    -0.77997  -0.79559   0.
|  6> H                     0.51748  -1.93228   0.92982
|  7> H                     0.51748  -1.93228  -0.92982
|  8> C                    -0.11126   0.57149   0.
|  9> H                    -1.39982  -0.87166  -0.91821
| 10> H                    -1.39982  -0.87166   0.91821
| 11> O                     1.14414   0.65779   0.
| 12> O                    -0.90957   1.75786   0.
| 13> H                    -1.83916   1.5185    0.
| 14> *
| 15>
| 16>                          ****END OF INPUT****
 Total Charge           Charge          ....    0
 Multiplicity           Mult            ....    1
 Number of Electrons    NEL             ....   40
FINAL SINGLE POINT ENERGY      -283.859816066277
FINAL SINGLE POINT ENERGY      -283.878784539792
FINAL SINGLE POINT ENERGY      -283.887422751882
FINAL SINGLE POINT ENERGY      -283.892016901591
FINAL SINGLE POINT ENERGY      -283.894447986386
FINAL SINGLE POINT ENERGY      -283.895625142831
FINAL SINGLE POINT ENERGY      -283.895967514448
FINAL SINGLE POINT ENERGY      -283.896041749290
FINAL SINGLE POINT ENERGY      -283.896044495869
                    ***********************HURRAY********************

CARTESIAN COORDINATES (ANGSTROEM)
---------------------------------
  N      0.029644   -1.945687    0.000004
  C     -0.813028   -0.771980   -0.000008
  H      0.660980   -1.896629    0.811217
  H      0.660979   -1.896647   -0.811211
  C     -0.070341    0.576458   -0.000026
  H     -1.491111   -0.790946   -0.885672
  H     -1.491110   -0.790926    0.885658
  O      1.135494    0.677887    0.000009
  O     -0.862324    1.684553    0.000012
  H     -1.801592    1.410056    0.000018

 Multiplicity           Mult            ....    1
 Number of Electrons    NEL             ....   40
 Basis Dimension        Dim             ....   95

ORBITAL ENERGIES
----------------

  NO   OCC          E(Eh)            E(eV)
   0   2.0000     -18.807545      -511.7793
   1   2.0000     -18.745441      -510.0894
   2   2.0000     -13.987522      -380.6198
   3   2.0000     -10.015102      -272.5248
   4   2.0000      -9.947727      -270.6914
   5   2.0000      -0.998639       -27.1744
   6   2.0000      -0.921243       -25.0683
   7   2.0000      -0.808482       -21.9999
   8   2.0000      -0.634839       -17.2748
   9   2.0000      -0.556052       -15.1310
  10   2.0000      -0.473835       -12.8937
  11   2.0000      -0.460935       -12.5427
  12   2.0000      -0.409939       -11.1550
  13   2.0000      -0.393013       -10.6944
  14   2.0000      -0.370690       -10.0870
  15   2.0000      -0.345963        -9.4141
  16   2.0000      -0.332035        -9.0351
  17   2.0000      -0.278046        -7.5660
  18   2.0000      -0.234684        -6.3861
  19   2.0000      -0.206410        -5.6167
  20   0.0000      -0.031715        -0.8630
  21   0.0000       0.002446         0.0665
  22   0.0000       0.033600         0.9143
  23   0.0000       0.072342         1.9685
  24   0.0000       0.082354         2.2410

MULLIKEN ATOMIC CHARGES
-----------------------
   0 N :   -0.182982
   1 C :   -0.034746
   2 H :    0.102209
   3 H :    0.102209
   4 C :    0.050828
   5 H :    0.050163
   6 H :    0.050166
   7 O :   -0.173094
   8 O :   -0.136278
   9 H :    0.171525
Sum of atomic charges:   -0.0000000

LOEWDIN ATOMIC CHARGES
----------------------
   0 N :   -0.095078
   1 C :   -0.059313
   2 H :    0.062912
   3 H :    0.062912
   4 C :    0.025200
   5 H :    0.039507
   6 H :    0.039509
   7 O :   -0.143516
   8 O :   -0.026419
   9 H :    0.094287

  Mayer bond orders larger than 0.1
B(  0-N ,  1-C ) :   1.1688 B(  0-N ,  2-H ) :   0.9704 B(  0-N ,  3-H ) :   0.9704
B(  1-C ,  4-C ) :   0.9040 B(  1-C ,  5-H ) :   0.9260 B(  1-C ,  6-H ) :   0.9260
B(  4-C ,  7-O ) :   2.1580 B(  4-C ,  8-O ) :   1.1913 B(  8-O ,  9-H ) :   0.9559

FINAL SINGLE POINT ENERGY      -283.896045019666

DIPOLE MOMENT
-------------
                                X             Y             Z
Electronic contribution:      1.59330       3.70470      -0.00003
Nuclear contribution   :     -2.65725      -3.96004       0.00001
                        -----------------------------------------
Total Dipole Moment    :     -1.06394      -0.25534      -0.00002
                        -----------------------------------------
Magnitude (a.u.)       :      1.09416
Magnitude (Debye)      :      2.78112

VIBRATIONAL FREQUENCIES
-----------------------

   0:         0.00 cm**-1
   1:         0.00 cm**-1
   2:         0.00 cm**-1
   3:         0.00 cm**-1
   4:         0.00 cm**-1
   5:         0.00 cm**-1
   6:        82.01 cm**-1
   7:       226.91 cm**-1
   8:       255.02 cm**-1
   9:       452.82 cm**-1
  10:       457.39 cm**-1
  11:       560.13 cm**-1
  12:       636.54 cm**-1
  13:       817.36 cm**-1
  14:       900.26 cm**-1
  15:       900.70 cm**-1
  16:      1117.00 cm**-1
  17:      1124.87 cm**-1
  18:      1153.81 cm**-1
  19:      1240.73 cm**-1
  20:      1319.56 cm**-1
  21:      1339.63 cm**-1
  22:      1383.96 cm**-1
  23:      1603.74 cm**-1
  24:      1838.04 cm**-1
  25:      2933.23 cm**-1
  26:      2979.75 cm**-1
  27:      3407.72 cm**-1
  28:      3476.58 cm**-1
  29:      3651.56 cm**-1

IR SPECTRUM
-----------

 Mode    freq (cm**-1)   T**2         TX         TY         TZ
-------------------------------------------------------------------
   6:        82.01    8.748328  ( -0.000035   0.000027   2.957757)
   7:       226.91   61.754879  ( -0.000037  -0.000174  -7.858427)
   8:       255.02   28.488537  ( -1.982642   4.955569   0.000018)
   9:       452.82   50.977319  ( -0.000060   0.000442  -7.139840)
  10:       457.39    1.202767  ( -0.416172  -1.014676  -0.000908)
  11:       560.13   30.531169  (  0.000817  -0.000534   5.525502)
  12:       636.54   13.970543  ( -3.148035   2.015048   0.000166)
  13:       817.36   27.550256  ( -1.990485  -4.856771   0.000089)
  14:       900.26    1.078671  (  0.005661  -0.047063  -1.037508)
  15:       900.70  173.774587  (  1.403723 -13.107408   0.003876)
  16:      1117.00   13.385188  (  0.340170  -3.642729   0.000253)
  17:      1124.87    0.239987  ( -0.000474   0.001080   0.489883)
  18:      1153.81    5.546849  (  2.282176  -0.581827   0.000005)
  19:      1240.73  305.474978  (  9.561917 -14.630267  -0.000258)
  20:      1319.56   84.323880  (  1.998888  -8.962607  -0.000165)
  21:      1339.63    1.498301  ( -0.000084   0.000063  -1.224051)
  22:      1383.96    3.718311  (  1.874409   0.452660  -0.000028)
  23:      1603.74   17.686543  ( -4.165583  -0.578328   0.000006)
  24:      1838.04  201.865348  ( 14.177254   0.933179  -0.000022)
  25:      2933.23   28.317201  ( -4.658983   2.571201  -0.000124)
  26:      2979.75   11.146516  ( -0.000194  -0.000140  -3.338640)
  27:      3407.72    1.997112  ( -1.298680  -0.557264   0.000004)
  28:      3476.58    3.523741  (  0.000048  -0.000028  -1.877163)
  29:      3651.56   28.711978  ( -5.358039   0.058237   0.000092)

--------------------------
THERMOCHEMISTRY AT 298.15K
--------------------------

Temperature         ... 298.15 K
Pressure            ... 1.00 atm
Total Mass          ... 75.07 AMU

Throughout the following assumptions are being made:
  (1) The electronic state is orbitally nondegenerate
  (2) There are no thermally accessible electronically excited states
  (3) Hindered rotations indicated by low frequency modes are not
      treated as such but are treated as vibrations and this may
      cause some error
  (4) All equations used are the standard statistical mechanics
      equations for an ideal gas
  (5) All vibrations are strictly harmonic

freq.      82.01  E(vib)   ...       0.48
freq.     226.91  E(vib)   ...       0.33
freq.     255.02  E(vib)   ...       0.30
freq.     452.82  E(vib)   ...       0.16
freq.     457.39  E(vib)   ...       0.16
freq.     560.13  E(vib)   ...       0.12
freq.     636.54  E(vib)   ...       0.09
freq.     817.36  E(vib)   ...       0.05
freq.     900.26  E(vib)   ...       0.03
freq.     900.70  E(vib)   ...       0.03
freq.    1117.00  E(vib)   ...       0.01
freq.    1124.87  E(vib)   ...       0.01
freq.    1153.81  E(vib)   ...       0.01
freq.    1240.73  E(vib)   ...       0.01
freq.    1319.56  E(vib)   ...       0.01
freq.    1339.63  E(vib)   ...       0.01
freq.    1383.96  E(vib)   ...       0.00
freq.    1603.74  E(vib)   ...       0.00
freq.    1838.04  E(vib)   ...       0.00
freq.    2933.23  E(vib)   ...       0.00
freq.    2979.75  E(vib)   ...       0.00
freq.    3407.72  E(vib)   ...       0.00
freq.    3476.58  E(vib)   ...       0.00
freq.    3651.56  E(vib)   ...       0.00

------------
INNER ENERGY
------------

The inner energy is: U= E(el) + E(ZPE) + E(vib) + E(rot) + E(trans)
    E(el)   - is the total energy from the electronic structure calculation
              = E(kin-el) + E(nuc-el) + E(el-el) + E(nuc-nuc)
    E(ZPE)  - the the zero temperature vibrational energy from the frequency calculation
    E(vib)  - the the finite temperature correction to E(ZPE) due to population
              of excited vibrational states
    E(rot)  - is the rotational thermal energy
    E(trans)- is the translational thermal energy

Summary of contributions to the inner energy U:
Electronic energy                ...   -283.89604502 Eh
Zero point energy                ...      0.07713727 Eh      48.40 kcal/mol
Thermal vibrational correction   ...      0.00290607 Eh       1.82 kcal/mol
Thermal rotational correction    ...      0.00141627 Eh       0.89 kcal/mol
Thermal translational correction ...      0.00141627 Eh       0.89 kcal/mol
-----------------------------------------------------------------------
Total thermal energy                   -283.81316914 Eh

Summary of corrections to the electronic energy:
(perhaps to be used in another calculation)
Total thermal correction                  0.00573861 Eh       3.60 kcal/mol
Non-thermal (ZPE) correction              0.07713727 Eh      48.40 kcal/mol
-----------------------------------------------------------------------
Total correction                          0.08287588 Eh      52.01 kcal/mol

--------
ENTHALPY
--------

The enthalpy is H = U + kB*T
                kB is Boltzmann's constant
Total free energy                 ...   -283.81316914 Eh
Thermal Enthalpy correction       ...      0.00094421 Eh       0.59 kcal/mol
-----------------------------------------------------------------------
Total Enthalpy                    ...   -283.81222493 Eh

Vibrational entropy computed according to the QRRHO of S. Grimme
Chem.Eur.J. 2012 18 9955

check

-------
ENTROPY
-------

The entropy contributions are T*S = T*(S(el)+S(vib)+S(rot)+S(trans)
     S(el)   - electronic entropy
     S(vib)  - vibrational entropy
     S(rot)  - rotational entropy
     S(trans)- translational entropy
The entropies will be listed as mutliplied by the temperature to get
units of energy

Electronic entropy                ...      0.00000000 Eh      0.00 kcal/mol
Vibrational entropy               ...      0.00481642 Eh      3.02 kcal/mol
Rotational entropy                ...      0.01106213 Eh      6.94 kcal/mol
Translational entropy             ...      0.01846507 Eh     11.59 kcal/mol
-----------------------------------------------------------------------
Final entropy term                ...      0.03434362 Eh     21.55 kcal/mol

CAUTION: The rotational entropy is not quite correctly treated here
         because it includes a symmetry number that is not yet correctly
         implemented in ORCA!
For a nonlinear molecule the correct rotational entropy is:
    S(rot) = R*(ln(qrot/sn)+1.5)
    R    = 8.31441 J/mol/K = 1.987191683e-3 kcal/mol/K
    qrot = 82020.4895949
    sn is the rotational symmetry number. We have assumed 3 here
       if it is different for your molecule then you should correct
       the printed rotational entropy by manually evaluating the equation
       as given above

For convenience we print out the resulting values for sn=1 - 12:
 sn= 1  qrot/sn=   82020.4896 T*S(rot)=     7.59 kcal/mol T*S(tot)=    22.20 kcal/mol
 sn= 2  qrot/sn=   41010.2448 T*S(rot)=     7.18 kcal/mol T*S(tot)=    21.79 kcal/mol
 sn= 3  qrot/sn=   27340.1632 T*S(rot)=     6.94 kcal/mol T*S(tot)=    21.55 kcal/mol
 sn= 4  qrot/sn=   20505.1224 T*S(rot)=     6.77 kcal/mol T*S(tot)=    21.38 kcal/mol
 sn= 5  qrot/sn=   16404.0979 T*S(rot)=     6.64 kcal/mol T*S(tot)=    21.25 kcal/mol
 sn= 6  qrot/sn=   13670.0816 T*S(rot)=     6.53 kcal/mol T*S(tot)=    21.14 kcal/mol
 sn= 7  qrot/sn=   11717.2128 T*S(rot)=     6.44 kcal/mol T*S(tot)=    21.05 kcal/mol
 sn= 8  qrot/sn=   10252.5612 T*S(rot)=     6.36 kcal/mol T*S(tot)=    20.97 kcal/mol
 sn= 9  qrot/sn=    9113.3877 T*S(rot)=     6.29 kcal/mol T*S(tot)=    20.90 kcal/mol
 sn=10  qrot/sn=    8202.0490 T*S(rot)=     6.23 kcal/mol T*S(tot)=    20.84 kcal/mol
 sn=11  qrot/sn=    7456.4081 T*S(rot)=     6.17 kcal/mol T*S(tot)=    20.78 kcal/mol
 sn=12  qrot/sn=    6835.0408 T*S(rot)=     6.12 kcal/mol T*S(tot)=    20.73 kcal/mol

-------------------
GIBBS FREE ENTHALPY
-------------------

The Gibbs free enthalpy is G = H - T*S

Total enthalpy                    ...   -283.81222493 Eh
Total entropy correction          ...     -0.03434362 Eh    -21.55 kcal/mol
-----------------------------------------------------------------------
Final Gibbs free enthalpy         ...   -283.84656855 Eh

For completeness - the Gibbs free enthalpy minus the electronic energy
G-E(el)                           ...      0.04947647 Eh     31.05 kcal/mol

                             ****ORCA TERMINATED NORMALLY****
TOTAL RUN TIME: 0 days 0 hours 2 minutes 10 seconds 765 msec
